<?xml version="1.0"?>
<VTKFile type="PolyData" version="0.1" byte_order="LittleEndian" compressor="vtkZLibDataCompressor">
	<PolyData>
		<Piece NumberOfPoints="142" NumberOfVerts="0" NumberOfLines="0" NumberOfStrips="0" NumberOfPolys="216">
		<PointData Normals="Normals">
		<DataArray type="Float32" Name="Normals" NumberOfComponents="3" format="ascii">
			-0.004232  0.999991 -0.000001
			 0.990771 -0.135545 -0.000000
			 0.046767  0.958860  0.280001
			 0.912340  0.377150 -0.159355
			 0.868027  0.495938  0.023957
			 0.540181 -0.839202 -0.062803
			 0.778651 -0.611818 -0.139214
			 0.463564 -0.809392 -0.360546
			 0.273559 -0.700928 -0.658684
			 0.738841  0.469181 -0.483718
			 0.109132 -0.450097 -0.886286
			 0.163675 -0.496840 -0.852268
			 0.780170  0.451192 -0.433314
			 0.338430  0.907757  0.247875
			 0.099455  0.994060  0.044203
			 0.699190  0.626242 -0.344899
			 0.410438  0.806091  0.426331
			-0.527992  0.782476  0.330085
			 0.689027  0.309569 -0.655293
			 0.302810 -0.817435 -0.490007
			 0.844250  0.441508 -0.303831
			 0.538221  0.841598 -0.045064
			 0.352966  0.838107 -0.415924
			 0.440900  0.896872  0.035039
			-0.352987  0.903638  0.242568
			-0.177544  0.677689 -0.713594
			 0.208960  0.774800 -0.596675
			 0.071820  0.939886 -0.333852
			 0.480402  0.557925 -0.676708
			 0.732481  0.680317 -0.025302
			 0.628273  0.758640 -0.172448
			-0.565456 -0.711723  0.416785
			-0.333776 -0.590906  0.734455
			 0.800112  0.375120 -0.468087
			 0.728663  0.612353  0.306716
			 0.469416 -0.868191 -0.160910
			 0.395001  0.823708  0.406793
			 0.578652  0.815456  0.013919
			 0.330065  0.613861 -0.717099
			-0.306533  0.950515  0.050591
			 0.391232  0.892232  0.225522
			-0.229588  0.875147  0.425920
			-0.902834 -0.407306  0.137812
			-0.993270 -0.105780  0.047170
			-0.688964 -0.587612 -0.424313
			-0.399784  0.528000  0.749259
			 0.018149  0.937456  0.347629
			 0.496620  0.866073  0.057322
			 0.715512 -0.610694  0.339257
			 0.920678 -0.180851  0.345897
			 0.597295 -0.801703 -0.022609
			-0.624755  0.687957  0.369318
			 0.096850  0.995176 -0.015671
			 0.057885  0.522261 -0.850819
			-0.378276  0.463585 -0.801247
			-0.963108  0.264627  0.048935
			-0.000578  0.999479 -0.032283
			 0.003131  0.467016 -0.884243
			-0.200673  0.602089 -0.772799
			-0.725617  0.486547 -0.486572
			-0.492385  0.856530 -0.154638
			-0.004598 -0.595072 -0.803659
			-0.367823 -0.245028 -0.897032
			-0.225197 -0.593088 -0.773003
			-0.445411 -0.619922 -0.645992
			-0.798801  0.154384 -0.581448
			-0.805276  0.568314 -0.168966
			-0.736025  0.547091 -0.398696
			-0.703815 -0.145996 -0.695219
			-0.494213  0.822094 -0.282692
			-0.299278  0.453797 -0.839346
			 0.129280 -0.990354 -0.049851
			-0.676887 -0.736087  0.000002
			 0.071156 -0.997465 -0.000001
			 0.024327 -0.999704 -0.000002
			-0.276729 -0.960948  0.000000
			 0.365781 -0.930701 -0.000000
			-0.996327 -0.085359 -0.006821
			 0.042319  0.960896 -0.273657
			 0.791237 -0.608649  0.059079
			 0.915204  0.357291  0.186401
			 0.452754 -0.823963  0.340734
			 0.742526  0.450847  0.495370
			 0.253797 -0.718223  0.647876
			 0.111669 -0.447583  0.887243
			 0.811355  0.434858  0.390643
			 0.165629 -0.495169  0.852863
			 0.345291  0.903220 -0.254887
			 0.164852  0.841136 -0.515087
			 0.727591  0.618712  0.296321
			-0.632394  0.687875 -0.356237
			 0.609370  0.349371  0.711764
			 0.703259  0.680453  0.205940
			 0.245246 -0.779480  0.576424
			 0.225621  0.853116  0.470413
			 0.323169  0.941520 -0.095400
			 0.115292  0.981278  0.154278
			-0.613416  0.760459 -0.213128
			-0.181436  0.597885  0.780778
			 0.188401  0.758837  0.623435
			-0.099225  0.922318  0.373476
			 0.371016  0.928511 -0.014651
			 0.662311  0.735173 -0.144445
			 0.387972  0.598978  0.700502
			-0.384439 -0.568895 -0.727025
			-0.727910 -0.624971 -0.282061
			 0.651364  0.672324 -0.351717
			 0.780347  0.530455  0.331173
			 0.241125  0.908989 -0.339996
			 0.479247 -0.872637  0.093949
			 0.538863  0.841416  0.040558
			 0.309251  0.777790  0.547181
			-0.404356  0.910060  0.091038
			 0.229736  0.822685 -0.520011
			-0.257112  0.891581 -0.372795
			-0.900418 -0.428464 -0.075272
			-0.689281 -0.587318  0.424204
			-0.270765  0.320231 -0.907821
			 0.004751  0.564044 -0.825731
			 0.413523 -0.638768 -0.648825
			 0.454114  0.815525 -0.358747
			 0.920678 -0.180850 -0.345897
			 0.546293 -0.834445 -0.072565
			-0.707763  0.634096 -0.311438
			-0.357358  0.402489  0.842792
			 0.079519  0.536050  0.840433
			 0.028585  0.500024  0.865539
			-0.132980  0.414541  0.900262
			-0.758933  0.299013  0.578456
			-0.531119  0.825656  0.190274
			-0.367822 -0.245027  0.897033
			 0.023218 -0.615342  0.787919
			-0.067698 -0.764506  0.641052
			-0.383949 -0.772236  0.506196
			-0.880546  0.122847  0.457763
			-0.759600 -0.172393  0.627128
			-0.735879  0.547100  0.398953
			-0.805488  0.567971  0.169108
			-0.509591  0.807856  0.296119
			-0.297624  0.453562  0.840060
			 0.128613 -0.990572  0.047187
			-0.996327 -0.085357  0.006819
		</DataArray>
	</PointData>
	<Points>
		<DataArray type="Float32" NumberOfComponents="3" format="ascii">
			-0.020405  0.016209  0.000150
			-0.009314  0.016841  0.000150
			-0.008669  0.016904 -0.004180
			 0.021163  0.009185 -0.007528
			 0.022027  0.008883  0.000150
			 0.019674 -0.004613  0.000150
			 0.019666 -0.004762 -0.002163
			 0.018391 -0.004519 -0.008543
			 0.015634 -0.002522 -0.015003
			 0.018161  0.011046 -0.011725
			 0.012097 -0.001388 -0.016757
			 0.009725  0.004515 -0.018399
			 0.016127  0.012927 -0.013341
			 0.008524  0.015014 -0.005159
			 0.009974  0.013350  0.000150
			 0.012292  0.017173 -0.013436
			 0.009174  0.019930 -0.011666
			 0.006235  0.016419 -0.009892
			 0.011930  0.011010 -0.017268
			 0.009362  0.006958 -0.022307
			 0.009586  0.008270 -0.022890
			 0.008123  0.008977 -0.023095
			 0.007868  0.010039 -0.019549
			 0.010379  0.018698 -0.014329
			 0.006477  0.017811 -0.010987
			 0.009311  0.018080 -0.015713
			 0.004828  0.010792 -0.018275
			 0.005069  0.013599 -0.016647
			 0.003682  0.008518 -0.029750
			 0.005488  0.011156 -0.024970
			 0.007035  0.009315 -0.025903
			 0.007036  0.008010 -0.026796
			 0.004138  0.009402 -0.029420
			 0.004255  0.015736 -0.028250
			 0.002674  0.012411 -0.024241
			 0.002620  0.012745 -0.021058
			 0.001716  0.017062 -0.018549
			 0.005082  0.019919 -0.023899
			 0.002867  0.018236 -0.025971
			 0.003637  0.013470 -0.013145
			-0.000600  0.013921 -0.013731
			 0.007503  0.014942 -0.002391
			 0.000146  0.000683 -0.004101
			-0.000005  0.000003  0.000150
			-0.000956  0.002047 -0.009825
			 0.003127  0.006753 -0.010931
			 0.000418  0.013076 -0.012269
			-0.003161  0.018312 -0.012190
			-0.008758  0.006202 -0.009838
			-0.009589  0.016203 -0.001485
			-0.015179  0.002123 -0.002122
			-0.009628  0.017002 -0.004960
			-0.037378  0.016955  0.000150
			-0.037668  0.014934 -0.003528
			-0.044997  0.014516 -0.004316
			-0.043598  0.018611  0.000150
			-0.021366  0.016257  0.000150
			-0.032152  0.013774 -0.003752
			-0.024753  0.012073 -0.005270
			-0.012553  0.011794 -0.011813
			-0.005602  0.015303 -0.022495
			-0.038197  0.006630 -0.005593
			-0.042304  0.006730 -0.005446
			-0.031535  0.007752 -0.005751
			-0.025545  0.007042 -0.006678
			-0.015456  0.004698 -0.012267
			-0.014023  0.005139 -0.017400
			-0.009273  0.010628 -0.024179
			-0.012917  0.005206 -0.022689
			-0.002931  0.015886 -0.024668
			-0.001069  0.014994 -0.028665
			 0.001211  0.007837 -0.030349
			-0.042308  0.006726  0.000150
			-0.038201  0.006626  0.000150
			-0.031539  0.007748  0.000150
			-0.025550  0.007037  0.000150
			-0.015180  0.002122  0.000150
			-0.046390  0.009546 -0.004210
			-0.008669  0.016904  0.004480
			 0.019666 -0.004762  0.002464
			 0.021163  0.009185  0.007829
			 0.018391 -0.004519  0.008844
			 0.018161  0.011046  0.012025
			 0.015634 -0.002522  0.015304
			 0.012097 -0.001388  0.017058
			 0.016127  0.012927  0.013641
			 0.009725  0.004515  0.018699
			 0.008524  0.015014  0.005460
			 0.009174  0.019930  0.011966
			 0.012292  0.017173  0.013736
			 0.006235  0.016419  0.010193
			 0.011930  0.011010  0.017569
			 0.009586  0.008270  0.023186
			 0.009362  0.006958  0.022603
			 0.007868  0.010038  0.019512
			 0.008123  0.008977  0.023391
			 0.010379  0.018698  0.014630
			 0.006477  0.017811  0.011288
			 0.009311  0.018080  0.016013
			 0.004828  0.010792  0.018576
			 0.005069  0.013599  0.016948
			 0.007035  0.009315  0.026194
			 0.005488  0.011156  0.025261
			 0.003682  0.008518  0.030018
			 0.004138  0.009402  0.029711
			 0.007036  0.008010  0.027086
			 0.002674  0.012411  0.024532
			 0.004255  0.015736  0.028518
			 0.001717  0.017062  0.018845
			 0.002620  0.012745  0.021354
			 0.005082  0.019919  0.024167
			 0.002867  0.018236  0.026239
			 0.003637  0.013470  0.013446
			-0.000600  0.013921  0.014032
			 0.007503  0.014942  0.002691
			 0.000146  0.000683  0.004401
			-0.000956  0.002047  0.010126
			 0.003127  0.006753  0.011231
			 0.000418  0.013076  0.012570
			-0.008758  0.006202  0.010139
			-0.003161  0.018312  0.012491
			-0.009589  0.016203  0.001786
			-0.015179  0.002123  0.002422
			-0.009628  0.017002  0.005260
			-0.044997  0.014516  0.004617
			-0.037668  0.014934  0.003828
			-0.032152  0.013774  0.004053
			-0.024753  0.012073  0.005571
			-0.012553  0.011794  0.012113
			-0.005602  0.015303  0.022791
			-0.042304  0.006730  0.005746
			-0.038197  0.006630  0.005893
			-0.031535  0.007752  0.006052
			-0.025545  0.007042  0.006979
			-0.015456  0.004698  0.012567
			-0.012917  0.005206  0.022985
			-0.009273  0.010628  0.024475
			-0.014023  0.005139  0.017700
			-0.002931  0.015886  0.024959
			-0.001069  0.014994  0.028956
			 0.001211  0.007837  0.030617
			-0.046390  0.009546  0.004511
		</DataArray>
	</Points>
			<Polys>
				<DataArray type="Int32" Name="connectivity" format="ascii">
					0 1 2 
					3 4 5 6 
					7 3 6 
					8 9 3 7 
					10 9 8 
					11 12 9 10 
					12 13 9 
					9 13 3 
					13 14 4 3 
					12 15 16 13 
					16 17 13 
					11 18 12 
					11 19 20 18 
					20 21 22 18 
					15 23 16 
					23 24 17 16 
					18 25 23 15 
					18 22 25 
					22 26 25 
					26 27 25 
					28 29 30 
					31 32 28 30 
					29 33 34 
					26 35 36 27 
					35 37 36 
					35 38 37 
					35 34 33 38 
					23 25 39 24 
					25 27 39 
					27 36 40 39 
					13 41 14 
					13 17 41 
					41 17 42 43 
					17 44 42 
					17 45 44 
					17 24 46 45 
					24 39 46 
					39 40 46 
					46 40 47 48 
					47 49 48 
					48 49 50 
					47 2 49 
					47 51 2 
					50 49 1 
					46 48 45 
					45 48 44 
					52 53 54 55 
					56 57 53 52 
					58 57 56 
					2 56 0 
					2 59 58 56 
					47 60 59 51 
					57 61 62 
					53 57 62 
					57 58 63 61 
					58 59 64 63 
					59 65 64 
					59 60 65 
					66 67 68 
					65 60 67 
					65 67 66 
					60 69 67 
					69 70 67 
					67 70 68 
					70 71 68 
					70 28 71 
					33 28 70 
					38 33 70 
					47 40 60 
					60 36 37 69 
					36 60 40 
					12 18 15 
					38 69 37 
					70 69 38 
					7 42 44 8 
					8 44 10 
					10 44 11 
					35 44 48 
					32 71 28 
					35 68 71 
					35 48 65 68 
					48 50 64 65 
					44 35 11 
					35 71 32 
					72 55 62 
					72 62 61 73 
					73 61 63 74 
					74 63 64 75 
					64 50 76 75 
					76 50 1 
					54 77 55 
					77 62 55 
					65 66 68 
					62 54 53 
					77 54 62 
					42 7 6 5 43 
					59 2 51 
					1 49 2 
					29 28 33 
					14 41 43 
					34 35 22 21 
					35 26 22 
					19 31 30 20 
					29 34 21 
					30 29 21 20 
					31 19 35 
					19 11 35 
					35 32 31 
					78 1 0 
					79 5 4 80 
					79 80 81 
					81 80 82 83 
					83 82 84 
					84 82 85 86 
					82 87 85 
					80 87 82 
					80 4 14 87 
					87 88 89 85 
					87 90 88 
					85 91 86 
					91 92 93 86 
					91 94 95 92 
					88 96 89 
					88 90 97 96 
					89 96 98 91 
					98 94 91 
					98 99 94 
					98 100 99 
					101 102 103 
					101 103 104 105 
					106 107 102 
					100 108 109 99 
					108 110 109 
					110 111 109 
					111 107 106 109 
					97 112 98 96 
					112 100 98 
					112 113 108 100 
					14 114 87 
					114 90 87 
					43 115 90 114 
					115 116 90 
					116 117 90 
					117 118 97 90 
					118 112 97 
					118 113 112 
					119 120 113 118 
					119 121 120 
					122 121 119 
					121 78 120 
					78 123 120 
					1 121 122 
					117 119 118 
					116 119 117 
					55 124 125 52 
					52 125 126 56 
					56 126 127 
					0 56 78 
					56 127 128 78 
					123 128 129 120 
					130 131 126 
					130 126 125 
					131 132 127 126 
					132 133 128 127 
					133 134 128 
					134 129 128 
					135 136 137 
					136 129 134 
					137 136 134 
					136 138 129 
					136 139 138 
					135 139 136 
					135 140 139 
					140 103 139 
					139 103 107 
					139 107 111 
					129 113 120 
					138 110 108 129 
					113 129 108 
					89 91 85 
					110 138 111 
					111 138 139 
					83 116 115 81 
					84 116 83 
					86 116 84 
					119 116 109 
					103 140 104 
					140 135 109 
					135 134 119 109 
					134 133 122 119 
					86 109 116 
					104 140 109 
					130 55 72 
					73 131 130 72 
					74 132 131 73 
					75 133 132 74 
					75 76 122 133 
					1 122 76 
					55 141 124 
					55 130 141 
					135 137 134 
					125 124 130 
					130 124 141 
					43 5 79 81 115 
					123 78 128 
					78 121 1 
					107 103 102 
					43 114 14 
					95 94 109 106 
					94 99 109 
					92 101 105 93 
					95 106 102 
					92 95 102 101 
					109 93 105 
					109 86 93 
					105 104 109 
				</DataArray>
				<DataArray type="Int32" Name="offsets" format="ascii">
					3 7 10 14 17 21 24 27 31 35 38 41 45 49 52 56 60 63 66 69 72 76 79 83 86 89 93 97 100 104 107 110 114 117 120 124 127 130 134 137 140 143 146 149 152 155 159 163 166 169 173 177 180 183 187 191 194 197 200 203 206 209 212 215 218 221 224 227 230 234 237 240 243 246 250 253 256 259 262 265 269 273 276 279 282 286 290 294 298 301 304 307 310 313 316 321 324 327 330 333 337 340 344 347 351 354 357 360 363 367 370 374 377 381 384 387 391 395 398 401 405 409 412 416 420 423 426 429 432 436 439 443 446 449 453 457 460 464 467 470 474 477 480 484 487 490 494 497 500 503 506 509 512 515 519 523 526 529 533 537 540 543 547 551 554 557 560 563 566 569 572 575 578 581 584 587 590 594 597 600 603 606 610 613 616 619 622 625 629 633 636 639 642 646 650 654 658 661 664 667 670 673 676 681 684 687 690 693 697 700 704 707 711 714 717 720 
				</DataArray>
			</Polys>
		</Piece>
	</PolyData>
</VTKFile>
