<?xml version="1.0"?>
<VTKFile type="PolyData" version="0.1" byte_order="LittleEndian" compressor="vtkZLibDataCompressor">
	<PolyData>
		<Piece NumberOfPoints="310" NumberOfVerts="0" NumberOfLines="0" NumberOfStrips="0" NumberOfPolys="360">
		<PointData Normals="Normals">
		<DataArray type="Float32" Name="Normals" NumberOfComponents="3" format="ascii">
			 0.640394 -0.768041  0.002846
			-0.233838 -0.972270  0.003380
			-0.765962 -0.642882  0.002105
			 0.777313 -0.629114 -0.000428
			-0.675549 -0.737315 -0.000438
			-0.838267  0.545256 -0.002095
			 0.695039  0.718972  0.000419
			 0.542578  0.840001 -0.002838
			-0.759671  0.650307  0.000435
			-0.350957  0.936386 -0.003367
			 0.412587 -0.910615 -0.023504
			-0.762148 -0.640554  0.093919
			-0.691457 -0.635117  0.344260
			 0.169242 -0.985574  0.000162
			-0.537434 -0.588079  0.604424
			-0.536441 -0.582764  0.610424
			-0.732305 -0.540858  0.413765
			-0.652088 -0.598103  0.465890
			 0.718239 -0.651845 -0.243376
			-0.340889 -0.663886  0.665620
			 0.742222 -0.557722 -0.371554
			-0.246511 -0.710096  0.659542
			 0.626233 -0.536565 -0.565623
			-0.210594 -0.788607  0.577710
			-0.251176 -0.525574 -0.812824
			-0.374162 -0.682455  0.627899
			-0.083072 -0.760116 -0.644456
			-0.098386 -0.867652 -0.487340
			-0.393537 -0.905905  0.156413
			-0.367735 -0.759024  0.537265
			-0.033295 -0.505898  0.861951
			-0.496179 -0.687519  0.530211
			-0.171339 -0.850999  0.496432
			 0.475867 -0.642500  0.600619
			 0.416063 -0.860214  0.294829
			 0.449144 -0.223284  0.865109
			 0.264496 -0.911865  0.313918
			 0.292594 -0.280031  0.914315
			 0.151528 -0.939685  0.306646
			-0.103677 -0.581574  0.806860
			-0.062211 -0.997768 -0.024282
			 0.557133 -0.813452  0.167029
			-0.626799 -0.778196  0.039170
			 0.036864 -0.998103  0.049301
			 0.725664 -0.511798  0.459863
			 0.169026 -0.985428 -0.019039
			 0.815656 -0.477688  0.326372
			 0.361512 -0.931907 -0.029303
			 0.776562 -0.582152  0.240936
			-0.257402 -0.071153 -0.963681
			-0.139021 -0.670393 -0.728866
			-0.334272 -0.113887 -0.935571
			-0.212126 -0.692740 -0.689285
			-0.485790 -0.206383 -0.849361
			-0.338339 -0.738615 -0.583073
			-0.351970 -0.214669 -0.911062
			-0.151863 -0.182688 -0.971371
			-0.245291 -0.780530 -0.574983
			 0.033922 -0.689056 -0.723914
			 0.097680 -0.978902 -0.179467
			-0.107381 -0.819421 -0.563044
			 0.772305 -0.501029  0.390530
			-0.537940 -0.835421 -0.112662
			 0.800750 -0.567763  0.190908
			 0.655613 -0.728986 -0.196851
			-0.620540 -0.782851 -0.045546
			-0.657457 -0.738236 -0.150853
			-0.654259 -0.751604  0.083884
			 0.740838 -0.668672 -0.063531
			-0.620083 -0.761556  0.188490
			 0.538614 -0.714579 -0.446400
			-0.587694 -0.746604  0.311767
			-0.095628 -0.907598 -0.408805
			-0.586512 -0.746673  0.313819
			-0.475298 -0.742349  0.472239
			-0.455479 -0.660463  0.596932
			-0.120658 -0.739916  0.661790
			 0.438448 -0.817048  0.374426
			-0.074911 -0.568076 -0.819560
			 0.850004 -0.510422  0.130238
			-0.361888 -0.778029 -0.513525
			 0.773807 -0.431492  0.463722
			-0.715318 -0.698640  0.014924
			 0.555674 -0.592657  0.583081
			 0.703789 -0.645696  0.296239
			-0.833575  0.544481  0.093240
			-0.761503  0.550139  0.342725
			-0.602890  0.521642  0.603667
			-0.603232  0.512421  0.611176
			-0.792265  0.447620  0.414672
			-0.716159  0.522901  0.462267
			-0.379014  0.624570  0.682833
			-0.603959  0.605281  0.518525
			-0.629879  0.662472  0.405442
			-0.489295  0.587059  0.644944
			-0.138989  0.456635  0.878730
			-0.575917  0.621462  0.531136
			-0.740563  0.666527  0.085486
			-0.707855  0.680330  0.189980
			-0.673792  0.669235  0.313254
			-0.672640  0.669413  0.315343
			-0.561991  0.678243  0.473447
			-0.532202  0.599249  0.598048
			-0.209845  0.718403  0.663221
			 0.383969  0.843593  0.375390
			 0.688274  0.724657  0.033917
			 0.574927  0.759659  0.303937
			 0.395495  0.751051  0.528683
			 0.620107  0.725664  0.298126
			 0.327383  0.834669  0.442886
			 0.626028  0.634577  0.453212
			 0.738613  0.592495  0.321559
			 0.794704  0.594580  0.122152
			 0.719652  0.557233  0.414236
			 0.747917  0.659144  0.078418
			 0.550231  0.778341 -0.302376
			 0.303098  0.952567 -0.027337
			 0.060199  0.998154 -0.008036
			 0.665780  0.709219 -0.231830
			 0.430717  0.743315 -0.511826
			 0.265092  0.662470 -0.700614
			-0.275602  0.577289 -0.768623
			-0.153620  0.760596 -0.630789
			-0.346568  0.008612 -0.937985
			-0.504552  0.099330 -0.857648
			-0.381956  0.201145 -0.902026
			-0.178610  0.193092 -0.964787
			 0.016120  0.584888 -0.810954
			-0.169170  0.821529 -0.544492
			-0.684033  0.679641 -0.264927
			-0.756093  0.627768 -0.185014
			-0.738769  0.657192 -0.149394
			-0.239834  0.386167  0.890705
			 0.262636  0.266666  0.927314
			 0.410753  0.292217  0.863650
			 0.377172  0.720990  0.581305
			 0.654260  0.753732 -0.061899
			 0.447759  0.775577 -0.444963
			-0.178786  0.900447 -0.396523
			-0.223781  0.563828 -0.794997
			-0.617067  0.512352 -0.597264
			-0.850172  0.512246 -0.121702
			-0.768414  0.589994  0.247885
			-0.204613  0.873486 -0.441765
			-0.117062  0.847329 -0.518005
			-0.542843  0.818861  0.186515
			-0.496914  0.662447  0.560571
			-0.271521  0.823473  0.498165
			 0.284011  0.903380  0.321313
			 0.176556  0.912309  0.369486
			 0.073071  0.923984  0.375385
			-0.269139  0.943927  0.191222
			-0.118684  0.991747  0.048491
			-0.024820  0.999388 -0.024646
			 0.274283  0.917879 -0.286822
			-0.232579  0.166502 -0.958219
			-0.290015  0.654665 -0.698072
			-0.420840  0.710527 -0.563954
			-0.372800  0.749114 -0.547585
			-0.034902  0.894975 -0.444748
			 0.416780 -0.908531  0.029430
			-0.761459 -0.641663 -0.091919
			-0.689165 -0.639008 -0.341644
			 0.181559 -0.983326  0.010296
			-0.534965 -0.591874 -0.602908
			-0.536440 -0.582766 -0.610423
			-0.732307 -0.540858 -0.413763
			-0.647683 -0.606414 -0.461269
			 0.746788 -0.622848  0.233169
			-0.300012 -0.666999 -0.681986
			 0.517792 -0.684700  0.512910
			-0.525937 -0.674961 -0.517512
			 0.343766 -0.624258  0.701517
			-0.544824 -0.734692 -0.404220
			-0.203061 -0.605025  0.769877
			-0.414316 -0.643018 -0.644104
			-0.012559 -0.854123  0.519919
			-0.096370 -0.890882  0.443893
			-0.439301 -0.879141 -0.184731
			-0.412695 -0.718706 -0.559593
			-0.081984 -0.471356 -0.878124
			-0.496179 -0.687519 -0.530211
			-0.169156 -0.851208 -0.496821
			 0.462546 -0.670943 -0.579557
			 0.392436 -0.862585 -0.319283
			 0.443557 -0.241823 -0.863006
			 0.286994 -0.884625 -0.367522
			 0.293456 -0.234392 -0.926792
			 0.185722 -0.908958 -0.373233
			-0.190977 -0.413575 -0.890215
			-0.151843 -0.970166 -0.189002
			 0.426824 -0.789614 -0.440829
			-0.691341 -0.679123 -0.246657
			 0.003553 -0.998932 -0.046058
			 0.698753 -0.554868 -0.451515
			 0.097532 -0.994864  0.027084
			 0.805168 -0.499259 -0.320070
			 0.384036 -0.877029  0.288680
			 0.860914 -0.494169 -0.120930
			-0.210531 -0.191964  0.958554
			-0.059446 -0.772281  0.632494
			-0.343023 -0.048951  0.938051
			-0.207735 -0.683702  0.699569
			-0.488750 -0.158095  0.857980
			-0.330823 -0.755336  0.565707
			-0.354578 -0.244347  0.902535
			-0.153689 -0.211813  0.965150
			-0.278383 -0.787823  0.549398
			 0.087215 -0.577114  0.811993
			 0.074582 -0.891624  0.446592
			-0.067764 -0.834618  0.546645
			 0.782143 -0.466706 -0.412841
			-0.596537 -0.756937  0.266813
			 0.822361 -0.563731 -0.077003
			 0.640818 -0.705066  0.303699
			-0.674516 -0.714279  0.186637
			-0.653684 -0.741512  0.151187
			-0.654259 -0.751604 -0.083885
			 0.740846 -0.668664  0.063529
			-0.620083 -0.761556 -0.188493
			 0.538592 -0.714598  0.446395
			-0.587714 -0.746585 -0.311774
			-0.067391 -0.914556  0.398805
			-0.586521 -0.746666 -0.313820
			-0.475296 -0.742351 -0.472237
			-0.455486 -0.660455 -0.596935
			-0.120663 -0.739911 -0.661794
			 0.484100 -0.791448 -0.373172
			-0.153310 -0.585199  0.796265
			 0.771101 -0.635894 -0.032266
			-0.550308 -0.582055  0.598643
			 0.662944 -0.684975 -0.302185
			-0.781870 -0.611175  0.123059
			 0.484030 -0.698759 -0.526736
			 0.703791 -0.645694 -0.296239
			-0.834125  0.543293 -0.095228
			-0.763303  0.546002 -0.345328
			-0.604876  0.517579 -0.605175
			-0.603232  0.512420 -0.611176
			-0.792266  0.447620 -0.414670
			-0.719546  0.514098 -0.466859
			-0.419193  0.616522 -0.666467
			-0.331026  0.673940 -0.660475
			-0.304874  0.756327 -0.578810
			-0.454264  0.631002 -0.628872
			-0.094895  0.496791 -0.862666
			-0.575917  0.621462 -0.531136
			-0.740560  0.666531 -0.085485
			-0.707855  0.680329 -0.189982
			-0.673820  0.669204 -0.313262
			-0.672675  0.669373 -0.315353
			-0.561993  0.678241 -0.473449
			-0.532201  0.599256 -0.598042
			-0.209847  0.718408 -0.663215
			 0.335607  0.863399 -0.376709
			 0.782058  0.609131 -0.131700
			 0.715853  0.521016 -0.464862
			 0.479408  0.654396 -0.584752
			 0.620110  0.725661 -0.298127
			 0.453852  0.874854 -0.169260
			 0.658009  0.595051 -0.461454
			 0.751645  0.572336 -0.327814
			 0.700059  0.671637 -0.242533
			 0.705682  0.590219 -0.391989
			 0.725886  0.660335 -0.192477
			 0.562010  0.803745  0.195293
			 0.298685  0.954112  0.021412
			 0.047687  0.998859 -0.002424
			 0.633890  0.734577  0.242033
			 0.669216  0.644117  0.370489
			 0.556493  0.609461  0.564688
			-0.313633  0.492665  0.811736
			-0.345834  0.074113  0.935364
			-0.507518  0.147606  0.848904
			-0.375732  0.172004  0.910626
			-0.173217  0.164400  0.971066
			-0.050594  0.689541  0.722477
			-0.206680  0.801639  0.560945
			-0.635366  0.764244  0.110640
			-0.710815  0.702012  0.043837
			-0.742118  0.653482  0.149068
			-0.173913  0.563332 -0.807720
			 0.256187  0.311866 -0.914936
			 0.418572  0.274469 -0.865716
			 0.393890  0.694316 -0.602309
			 0.654251  0.753740  0.061895
			 0.447714  0.775605  0.444959
			-0.205962  0.890129  0.406510
			-0.143550  0.556412  0.818412
			-0.453917  0.729388  0.511812
			-0.794800  0.606653 -0.016272
			-0.716658  0.696223 -0.040926
			-0.203772  0.850272  0.485298
			-0.175521  0.745705  0.642742
			-0.500733  0.850996 -0.158340
			-0.457219  0.707876 -0.538389
			-0.273642  0.823033 -0.497732
			 0.307775  0.903972 -0.296833
			 0.150885  0.936701 -0.315952
			 0.035365  0.950446 -0.308870
			-0.183811  0.982719  0.021823
			-0.085486  0.994993 -0.051771
			 0.047330  0.998741  0.016611
			 0.244992  0.969149  0.027023
			-0.220125  0.649982  0.727371
			-0.264289  0.040951  0.963574
			-0.295483  0.663070  0.687770
			-0.426252  0.693059  0.581359
			-0.339050  0.745977  0.573204
			-0.022763  0.983934  0.177076
		</DataArray>
	</PointData>
	<Points>
		<DataArray type="Float32" NumberOfComponents="3" format="ascii">
			 0.012902 -0.003183  0.000000
			 0.013214 -0.003164  0.000000
			 0.000000 -0.000022  0.000000
			 0.057440  0.002771  0.000000
			 0.050710  0.002226  0.000000
			-0.000096  0.001566  0.000000
			 0.057256  0.005828  0.000000
			 0.012331  0.006284  0.000000
			 0.050510  0.005545  0.000000
			 0.012643  0.006304  0.000000
			 0.013207 -0.003169  0.003428
			 0.000242 -0.000011  0.003608
			 0.000493  0.000004  0.005137
			 0.013650 -0.003142  0.004872
			 0.002269  0.000112  0.007223
			 0.004672  0.000258  0.009072
			 0.007123  0.000406  0.011871
			 0.009181 -0.002102  0.014030
			 0.016287 -0.001661  0.008574
			 0.012090  0.000047  0.017833
			 0.018112 -0.000893  0.010978
			 0.013900  0.000817  0.019215
			 0.019876  0.000530  0.012750
			 0.017396 -0.001604  0.023067
			 0.023247  0.000735  0.014584
			 0.019713 -0.001463  0.024502
			 0.029875 -0.003332  0.015696
			 0.027013 -0.005973  0.018507
			 0.026014 -0.006602  0.020621
			 0.026082  0.001562  0.024032
			 0.021846  0.001300  0.025572
			 0.026209  0.001568  0.025834
			 0.029475 -0.006083  0.023401
			 0.032418  0.001948  0.027745
			 0.033023 -0.005196  0.023364
			 0.033932  0.002042  0.026664
			 0.037145 -0.003594  0.022021
			 0.035782  0.002157  0.026074
			 0.039828 -0.003058  0.020638
			 0.040859  0.002470  0.024639
			 0.042633 -0.003354  0.018707
			 0.046810 -0.001249  0.023048
			 0.042550 -0.001055  0.026251
			 0.044981 -0.003399  0.016962
			 0.048986 -0.001612  0.019559
			 0.047072 -0.003923  0.015477
			 0.049905 -0.001817  0.017729
			 0.047572 -0.003445  0.013811
			 0.050644 -0.001539  0.015358
			 0.029189  0.001760  0.015081
			 0.031341 -0.002957  0.014636
			 0.033360  0.002018  0.013710
			 0.034495 -0.001547  0.013784
			 0.038332  0.002325  0.011057
			 0.040919 -0.001520  0.011482
			 0.040447  0.002456  0.009496
			 0.042787  0.002600  0.009470
			 0.043797 -0.001854  0.010936
			 0.049668 -0.002910  0.009189
			 0.046356 -0.003011  0.011914
			 0.051057 -0.000916  0.008816
			 0.053528  0.000549  0.011227
			 0.051839 -0.000998  0.007193
			 0.056982  0.000766  0.005930
			 0.057375  0.002108  0.001798
			 0.051349  0.000288  0.005583
			 0.050848  0.000917  0.003242
			 0.026797  0.001603  0.028079
			 0.032302  0.001940  0.029107
			 0.026753  0.001598  0.030853
			 0.032685  0.001963  0.030522
			 0.028913  0.001728  0.034233
			 0.035476  0.002133  0.031596
			 0.029975  0.001790  0.037165
			 0.031497  0.001882  0.039510
			 0.033221  0.001987  0.040882
			 0.035935 -0.000365  0.040955
			 0.039660  0.000243  0.039636
			 0.038604  0.002326  0.031042
			 0.040862  0.000441  0.035962
			 0.041183  0.002486  0.029753
			 0.041846  0.002524  0.033119
			 0.042188 -0.000788  0.028281
			 0.044900 -0.000428  0.029638
			 0.045834 -0.000718  0.027203
			 0.000147  0.001577  0.003609
			 0.000397  0.001589  0.005138
			 0.002173  0.001695  0.007224
			 0.004577  0.001839  0.009073
			 0.007028  0.001986  0.011872
			 0.008769  0.004722  0.014034
			 0.011915  0.002936  0.017835
			 0.013805  0.002390  0.019216
			 0.016985  0.005213  0.023072
			 0.019302  0.005353  0.024506
			 0.021751  0.002869  0.025573
			 0.026115  0.003136  0.025835
			 0.026703  0.003169  0.028080
			 0.026658  0.003162  0.030854
			 0.028819  0.003289  0.034234
			 0.029881  0.003349  0.037166
			 0.031403  0.003438  0.039511
			 0.033127  0.003542  0.040883
			 0.035538  0.006209  0.040959
			 0.039309  0.006065  0.039640
			 0.040525  0.006024  0.035965
			 0.041752  0.004086  0.033120
			 0.044428  0.007398  0.029644
			 0.045320  0.007806  0.027208
			 0.046224  0.008463  0.023055
			 0.048340  0.009098  0.019567
			 0.049228  0.009418  0.017736
			 0.049994  0.009238  0.015365
			 0.053107  0.007529  0.011232
			 0.056561  0.007749  0.005935
			 0.057112  0.006475  0.001801
			 0.012636  0.006299  0.003435
			 0.013079  0.006323  0.004878
			 0.015876  0.005167  0.008579
			 0.017780  0.004623  0.010982
			 0.019702  0.003423  0.012752
			 0.023073  0.003627  0.014586
			 0.030663  0.008284  0.014643
			 0.033265  0.003595  0.013711
			 0.038237  0.003905  0.011058
			 0.040352  0.004038  0.009497
			 0.042692  0.004181  0.009471
			 0.048860  0.010494  0.009198
			 0.050478  0.008686  0.008822
			 0.051244  0.008867  0.007199
			 0.050912  0.007534  0.005588
			 0.050490  0.006854  0.003246
			 0.040765  0.004039  0.024640
			 0.035688  0.003724  0.026075
			 0.033838  0.003610  0.026665
			 0.032323  0.003515  0.027746
			 0.032208  0.003506  0.029108
			 0.032591  0.003527  0.030523
			 0.035381  0.003697  0.031597
			 0.038510  0.003890  0.031043
			 0.041088  0.004051  0.029754
			 0.041693  0.007426  0.028286
			 0.042020  0.007740  0.026256
			 0.026005  0.010738  0.018518
			 0.029163  0.008474  0.015704
			 0.024939  0.011235  0.020633
			 0.025988  0.003131  0.024033
			 0.028437  0.011137  0.023412
			 0.032065  0.010692  0.023375
			 0.036349  0.009609  0.022029
			 0.039076  0.009409  0.020646
			 0.041824  0.010051  0.018716
			 0.044150  0.010387  0.016971
			 0.046163  0.011167  0.015487
			 0.046716  0.010758  0.013821
			 0.029094  0.003337  0.015082
			 0.033963  0.007272  0.013790
			 0.040343  0.008038  0.011488
			 0.043160  0.008723  0.010943
			 0.045560  0.010183  0.011923
			 0.013207 -0.003169 -0.003428
			 0.000242 -0.000011 -0.003608
			 0.000493  0.000004 -0.005137
			 0.013650 -0.003142 -0.004872
			 0.002269  0.000112 -0.007223
			 0.004672  0.000258 -0.009072
			 0.007123  0.000406 -0.011871
			 0.009181 -0.002102 -0.014030
			 0.016287 -0.001661 -0.008574
			 0.012090  0.000047 -0.017833
			 0.018112 -0.000893 -0.010978
			 0.013900  0.000817 -0.019215
			 0.019876  0.000530 -0.012750
			 0.017396 -0.001604 -0.023067
			 0.023247  0.000735 -0.014584
			 0.019713 -0.001463 -0.024502
			 0.029875 -0.003332 -0.015696
			 0.027013 -0.005973 -0.018507
			 0.026014 -0.006602 -0.020621
			 0.026082  0.001562 -0.024032
			 0.021846  0.001300 -0.025572
			 0.026209  0.001568 -0.025834
			 0.029475 -0.006083 -0.023401
			 0.032418  0.001948 -0.027745
			 0.033023 -0.005196 -0.023364
			 0.033932  0.002042 -0.026664
			 0.037145 -0.003594 -0.022021
			 0.035782  0.002157 -0.026074
			 0.039828 -0.003058 -0.020638
			 0.040859  0.002470 -0.024639
			 0.042633 -0.003354 -0.018707
			 0.046810 -0.001249 -0.023048
			 0.042550 -0.001055 -0.026251
			 0.044981 -0.003399 -0.016962
			 0.048986 -0.001612 -0.019559
			 0.047072 -0.003923 -0.015477
			 0.049905 -0.001817 -0.017729
			 0.047572 -0.003445 -0.013811
			 0.050644 -0.001539 -0.015358
			 0.029189  0.001760 -0.015081
			 0.031341 -0.002957 -0.014636
			 0.033360  0.002018 -0.013710
			 0.034495 -0.001547 -0.013784
			 0.038332  0.002325 -0.011057
			 0.040919 -0.001520 -0.011482
			 0.040447  0.002456 -0.009496
			 0.042787  0.002600 -0.009470
			 0.043797 -0.001854 -0.010936
			 0.049668 -0.002910 -0.009189
			 0.046356 -0.003011 -0.011914
			 0.051057 -0.000916 -0.008816
			 0.053528  0.000549 -0.011227
			 0.051839 -0.000998 -0.007193
			 0.056982  0.000766 -0.005930
			 0.057375  0.002108 -0.001798
			 0.051349  0.000288 -0.005583
			 0.050848  0.000917 -0.003242
			 0.026797  0.001603 -0.028079
			 0.032302  0.001940 -0.029107
			 0.026753  0.001598 -0.030853
			 0.032685  0.001963 -0.030522
			 0.028913  0.001728 -0.034233
			 0.035476  0.002133 -0.031596
			 0.029975  0.001790 -0.037165
			 0.031497  0.001882 -0.039510
			 0.033221  0.001987 -0.040882
			 0.035935 -0.000365 -0.040955
			 0.039660  0.000243 -0.039636
			 0.038604  0.002326 -0.031042
			 0.040862  0.000441 -0.035962
			 0.041183  0.002486 -0.029753
			 0.041846  0.002524 -0.033119
			 0.042188 -0.000788 -0.028281
			 0.044900 -0.000428 -0.029638
			 0.045834 -0.000718 -0.027203
			 0.000147  0.001577 -0.003609
			 0.000397  0.001589 -0.005138
			 0.002173  0.001695 -0.007224
			 0.004577  0.001839 -0.009073
			 0.007028  0.001986 -0.011872
			 0.008769  0.004722 -0.014034
			 0.011915  0.002936 -0.017835
			 0.013805  0.002390 -0.019216
			 0.016985  0.005213 -0.023072
			 0.019302  0.005353 -0.024506
			 0.021751  0.002869 -0.025573
			 0.026115  0.003136 -0.025835
			 0.026703  0.003169 -0.028080
			 0.026658  0.003162 -0.030854
			 0.028819  0.003289 -0.034234
			 0.029881  0.003349 -0.037166
			 0.031403  0.003438 -0.039511
			 0.033127  0.003542 -0.040883
			 0.035538  0.006209 -0.040959
			 0.039309  0.006065 -0.039640
			 0.040525  0.006024 -0.035965
			 0.041752  0.004086 -0.033120
			 0.044428  0.007398 -0.029644
			 0.045320  0.007806 -0.027208
			 0.046224  0.008463 -0.023055
			 0.048340  0.009098 -0.019567
			 0.049228  0.009418 -0.017736
			 0.049994  0.009238 -0.015365
			 0.053107  0.007529 -0.011232
			 0.056561  0.007749 -0.005935
			 0.057112  0.006475 -0.001801
			 0.012636  0.006299 -0.003435
			 0.013079  0.006323 -0.004878
			 0.015876  0.005167 -0.008579
			 0.017780  0.004623 -0.010982
			 0.019702  0.003423 -0.012752
			 0.023073  0.003627 -0.014586
			 0.033265  0.003595 -0.013711
			 0.038237  0.003905 -0.011058
			 0.040352  0.004038 -0.009497
			 0.042692  0.004181 -0.009471
			 0.048860  0.010494 -0.009198
			 0.050478  0.008686 -0.008822
			 0.051244  0.008867 -0.007199
			 0.050912  0.007534 -0.005588
			 0.050490  0.006854 -0.003246
			 0.040765  0.004039 -0.024640
			 0.035688  0.003724 -0.026075
			 0.033838  0.003610 -0.026665
			 0.032323  0.003515 -0.027746
			 0.032208  0.003506 -0.029108
			 0.032591  0.003527 -0.030523
			 0.035381  0.003697 -0.031597
			 0.038510  0.003890 -0.031043
			 0.041088  0.004051 -0.029754
			 0.041693  0.007426 -0.028286
			 0.042020  0.007740 -0.026256
			 0.026005  0.010738 -0.018518
			 0.029163  0.008474 -0.015704
			 0.024939  0.011235 -0.020633
			 0.025988  0.003131 -0.024033
			 0.028437  0.011137 -0.023412
			 0.032065  0.010692 -0.023375
			 0.036349  0.009609 -0.022029
			 0.039076  0.009409 -0.020646
			 0.041824  0.010051 -0.018716
			 0.044150  0.010387 -0.016971
			 0.046163  0.011167 -0.015487
			 0.046716  0.010758 -0.013821
			 0.030663  0.008284 -0.014643
			 0.029094  0.003337 -0.015082
			 0.033963  0.007272 -0.013790
			 0.040343  0.008038 -0.011488
			 0.043160  0.008723 -0.010943
			 0.045560  0.010183 -0.011923
		</DataArray>
	</Points>
			<Polys>
				<DataArray type="Int32" Name="connectivity" format="ascii">
					0 10 11 2 1 
					10 12 11 
					13 14 12 10 
					15 14 13 
					16 15 13 
					17 16 13 
					18 19 17 13 
					18 20 21 19 
					20 22 23 21 
					24 25 23 22 
					26 27 24 
					27 28 24 
					28 25 24 
					29 30 25 28 
					31 30 29 
					32 31 29 
					33 31 32 
					34 35 33 32 
					36 37 35 34 
					38 39 37 36 
					40 39 38 
					41 42 39 40 
					43 44 41 40 
					45 46 44 43 
					47 48 46 45 
					49 50 26 24 
					51 52 50 49 
					53 54 52 51 
					55 54 53 
					56 57 54 55 
					58 57 56 
					58 59 57 
					58 48 47 59 
					60 61 48 58 
					62 63 61 60 
					64 63 62 65 
					66 64 65 
					4 3 64 66 
					32 28 27 
					32 29 28 
					26 34 32 27 
					50 36 34 26 
					52 38 36 50 
					54 40 38 52 
					43 40 54 
					57 45 43 54 
					59 47 45 57 
					67 31 33 
					68 69 67 33 
					70 71 69 68 
					72 73 71 70 
					74 73 72 
					75 74 72 
					76 75 72 
					77 76 72 
					78 79 77 72 
					80 81 79 78 
					82 83 81 80 
					42 84 83 82 
					41 84 42 
					11 85 5 2 
					12 86 85 11 
					14 87 86 12 
					15 88 87 14 
					16 89 88 15 
					17 90 89 16 
					19 91 90 17 
					21 92 91 19 
					23 93 92 21 
					25 94 93 23 
					30 95 94 25 
					31 96 95 30 
					67 97 96 31 
					69 98 97 67 
					71 99 98 69 
					73 100 99 71 
					74 101 100 73 
					75 102 101 74 
					76 103 102 75 
					77 104 103 76 
					79 105 104 77 
					81 106 105 79 
					83 107 106 81 
					84 108 107 83 
					41 109 108 84 
					44 110 109 41 
					46 111 110 44 
					48 112 111 46 
					61 113 112 48 
					63 114 113 61 
					64 115 114 63 
					3 6 115 64 
					0 7 116 10 
					10 116 117 13 
					13 117 118 18 
					18 118 119 20 
					20 119 120 22 
					22 120 121 24 
					51 123 124 53 
					53 124 125 55 
					55 125 126 56 
					56 126 127 58 
					58 127 128 60 
					60 128 129 62 
					62 129 130 65 
					65 130 131 66 
					66 131 8 4 
					39 132 133 37 
					37 133 134 35 
					35 134 135 33 
					33 135 136 68 
					68 136 137 70 
					70 137 138 72 
					72 138 139 78 
					78 139 140 80 
					80 140 141 82 
					82 141 142 42 
					42 142 132 39 
					9 5 85 116 7 
					85 86 116 
					116 86 87 117 
					117 87 88 
					117 88 89 
					117 89 90 
					117 90 91 118 
					91 92 119 118 
					92 93 120 119 
					120 93 94 121 
					121 143 144 
					121 145 143 
					121 94 145 
					145 94 95 146 
					146 95 96 
					146 96 147 
					147 96 135 
					147 135 134 148 
					148 134 133 149 
					149 133 132 150 
					150 132 151 
					151 132 142 109 
					151 109 110 152 
					152 110 111 153 
					153 111 112 154 
					121 144 122 155 
					155 122 156 123 
					123 156 157 124 
					124 157 125 
					125 157 158 126 
					126 158 127 
					158 159 127 
					159 154 112 127 
					127 112 113 128 
					128 113 114 129 
					130 129 114 115 
					130 115 131 
					131 115 6 8 
					143 145 147 
					145 146 147 
					143 147 148 144 
					144 148 149 122 
					122 149 150 156 
					156 150 151 157 
					157 151 152 
					157 152 153 158 
					158 153 154 159 
					135 96 97 
					135 97 98 136 
					136 98 99 137 
					137 99 100 138 
					138 100 101 
					138 101 102 
					138 102 103 
					138 103 104 
					138 104 105 139 
					139 105 106 140 
					140 106 107 141 
					141 107 108 142 
					142 108 109 
					51 49 155 123 
					49 24 121 155 
					1 2 161 160 0 
					161 162 160 
					160 162 164 163 
					163 164 165 
					163 165 166 
					163 166 167 
					163 167 169 168 
					169 171 170 168 
					171 173 172 170 
					172 173 175 174 
					174 177 176 
					174 178 177 
					174 175 178 
					178 175 180 179 
					179 180 181 
					179 181 182 
					182 181 183 
					182 183 185 184 
					184 185 187 186 
					186 187 189 188 
					188 189 190 
					190 189 192 191 
					190 191 194 193 
					193 194 196 195 
					195 196 198 197 
					174 176 200 199 
					199 200 202 201 
					201 202 204 203 
					203 204 205 
					205 204 207 206 
					206 207 208 
					207 209 208 
					209 197 198 208 
					208 198 211 210 
					210 211 213 212 
					215 212 213 214 
					215 214 216 
					216 214 3 4 
					177 178 182 
					178 179 182 
					177 182 184 176 
					176 184 186 200 
					200 186 188 202 
					202 188 190 204 
					204 190 193 
					204 193 195 207 
					207 195 197 209 
					183 181 217 
					183 217 219 218 
					218 219 221 220 
					220 221 223 222 
					222 223 224 
					222 224 225 
					222 225 226 
					222 226 227 
					222 227 229 228 
					228 229 231 230 
					230 231 233 232 
					232 233 234 192 
					192 234 191 
					2 5 235 161 
					161 235 236 162 
					162 236 237 164 
					164 237 238 165 
					165 238 239 166 
					166 239 240 167 
					167 240 241 169 
					169 241 242 171 
					171 242 243 173 
					173 243 244 175 
					175 244 245 180 
					180 245 246 181 
					181 246 247 217 
					217 247 248 219 
					219 248 249 221 
					221 249 250 223 
					223 250 251 224 
					224 251 252 225 
					225 252 253 226 
					226 253 254 227 
					227 254 255 229 
					229 255 256 231 
					231 256 257 233 
					233 257 258 234 
					234 258 259 191 
					191 259 260 194 
					194 260 261 196 
					196 261 262 198 
					198 262 263 211 
					211 263 264 213 
					213 264 265 214 
					214 265 6 3 
					160 266 7 0 
					163 267 266 160 
					168 268 267 163 
					170 269 268 168 
					172 270 269 170 
					174 271 270 172 
					203 273 272 201 
					205 274 273 203 
					206 275 274 205 
					208 276 275 206 
					210 277 276 208 
					212 278 277 210 
					215 279 278 212 
					216 280 279 215 
					4 8 280 216 
					187 282 281 189 
					185 283 282 187 
					183 284 283 185 
					218 285 284 183 
					220 286 285 218 
					222 287 286 220 
					228 288 287 222 
					230 289 288 228 
					232 290 289 230 
					192 291 290 232 
					189 281 291 192 
					7 266 235 5 9 
					266 236 235 
					267 237 236 266 
					238 237 267 
					239 238 267 
					240 239 267 
					268 241 240 267 
					268 269 242 241 
					269 270 243 242 
					271 244 243 270 
					293 292 271 
					292 294 271 
					294 244 271 
					295 245 244 294 
					246 245 295 
					296 246 295 
					284 246 296 
					297 283 284 296 
					298 282 283 297 
					299 281 282 298 
					300 281 299 
					259 291 281 300 
					301 260 259 300 
					302 261 260 301 
					303 262 261 302 
					305 304 293 271 
					272 306 304 305 
					273 307 306 272 
					274 307 273 
					275 308 307 274 
					276 308 275 
					276 309 308 
					276 262 303 309 
					277 263 262 276 
					278 264 263 277 
					265 264 278 279 
					280 265 279 
					8 6 265 280 
					296 294 292 
					296 295 294 
					293 297 296 292 
					304 298 297 293 
					306 299 298 304 
					307 300 299 306 
					301 300 307 
					308 302 301 307 
					309 303 302 308 
					247 246 284 
					285 248 247 284 
					286 249 248 285 
					287 250 249 286 
					251 250 287 
					252 251 287 
					253 252 287 
					254 253 287 
					288 255 254 287 
					289 256 255 288 
					290 257 256 289 
					291 258 257 290 
					259 258 291 
					272 305 199 201 
					305 271 174 199 
				</DataArray>
				<DataArray type="Int32" Name="offsets" format="ascii">
					5 8 12 15 18 21 25 29 33 37 40 43 46 50 53 56 59 63 67 71 74 78 82 86 90 94 98 102 105 109 112 115 119 123 127 131 134 138 141 144 148 152 156 160 163 167 171 174 178 182 186 189 192 195 198 202 206 210 214 217 221 225 229 233 237 241 245 249 253 257 261 265 269 273 277 281 285 289 293 297 301 305 309 313 317 321 325 329 333 337 341 345 349 353 357 361 365 369 373 377 381 385 389 393 397 401 405 409 413 417 421 425 429 433 437 441 445 449 454 457 461 464 467 470 474 478 482 486 489 492 495 499 502 505 508 512 516 520 523 527 531 535 539 543 547 551 554 558 561 564 568 572 576 580 583 587 590 593 597 601 605 609 612 616 620 623 627 631 635 638 641 644 647 651 655 659 663 666 670 674 679 682 686 689 692 695 699 703 707 711 714 717 720 724 727 730 733 737 741 745 748 752 756 760 764 768 772 776 779 783 786 789 793 797 801 805 808 812 815 818 822 826 830 834 837 841 845 848 852 856 860 863 866 869 872 876 880 884 888 891 895 899 903 907 911 915 919 923 927 931 935 939 943 947 951 955 959 963 967 971 975 979 983 987 991 995 999 1003 1007 1011 1015 1019 1023 1027 1031 1035 1039 1043 1047 1051 1055 1059 1063 1067 1071 1075 1079 1083 1087 1091 1095 1099 1103 1107 1111 1115 1119 1123 1128 1131 1135 1138 1141 1144 1148 1152 1156 1160 1163 1166 1169 1173 1176 1179 1182 1186 1190 1194 1197 1201 1205 1209 1213 1217 1221 1225 1228 1232 1235 1238 1242 1246 1250 1254 1257 1261 1264 1267 1271 1275 1279 1283 1286 1290 1294 1297 1301 1305 1309 1312 1315 1318 1321 1325 1329 1333 1337 1340 1344 1348 
				</DataArray>
			</Polys>
		</Piece>
	</PolyData>
</VTKFile>
