<?xml version="1.0"?>
<VTKFile type="PolyData" version="0.1" byte_order="LittleEndian" compressor="vtkZLibDataCompressor">
	<PolyData>
		<Piece NumberOfPoints="142" NumberOfVerts="0" NumberOfLines="0" NumberOfStrips="0" NumberOfPolys="216">
		<PointData Normals="Normals">
		<DataArray type="Float32" Name="Normals" NumberOfComponents="3" format="ascii">
			 0.987338 -0.158631 -0.000000
			 0.343372 -0.939199 -0.000000
			-0.956743  0.286788  0.048948
			-0.694372 -0.719616  0.000005
			 0.046025 -0.998940  0.000004
			-0.000822 -1.000000 -0.000003
			-0.300561 -0.953763 -0.000003
			 0.020952  0.999780 -0.000001
			 0.071182  0.957410  0.279820
			 0.920978  0.355524 -0.159382
			 0.879627  0.475065  0.023856
			 0.519897 -0.851911 -0.062894
			 0.764135 -0.629811 -0.139413
			 0.443861 -0.820188 -0.360942
			 0.256196 -0.707050 -0.659123
			 0.749801  0.451572 -0.483612
			 0.097949 -0.452356 -0.886442
			 0.156994 -0.510121 -0.845653
			 0.790607  0.432686 -0.433270
			 0.360653  0.899191  0.247760
			 0.124060  0.991291  0.044177
			 0.713946  0.609486 -0.344686
			 0.700995  0.297199 -0.648289
			 0.429777  0.796027  0.426185
			-0.508915  0.794917  0.330321
			 0.296987 -0.840194 -0.453732
			 0.864982  0.420822 -0.273339
			 0.557968  0.828808 -0.041808
			 0.371398  0.831547 -0.413029
			 0.462331  0.886014  0.035062
			-0.330632  0.912064  0.242531
			-0.160810  0.681911 -0.713539
			 0.230775  0.769670 -0.595274
			 0.095956  0.938717 -0.331062
			 0.862194  0.296094 -0.411034
			 0.780989  0.614319  0.112553
			 0.502905  0.117027 -0.856383
			-0.310401 -0.459897 -0.831953
			-0.202455 -0.907962 -0.366901
			 0.013703 -0.931946 -0.362337
			 0.669004  0.502121 -0.548004
			 0.727713  0.623633  0.285509
			 0.337889 -0.881360 -0.330204
			 0.409512  0.804309  0.430566
			 0.461769  0.790464  0.402413
			-0.173808  0.546386 -0.819300
			-0.283671  0.957955  0.043051
			 0.409757  0.886176  0.216315
			-0.208110  0.880353  0.426227
			-0.912392 -0.385380  0.137924
			-0.995492 -0.082269  0.047205
			-0.701431 -0.576497 -0.419101
			-0.386668  0.537396  0.749462
			 0.041304  0.936705  0.347674
			 0.518411  0.852947  0.061088
			 0.696782 -0.629469  0.343895
			 0.916175 -0.202348  0.345947
			 0.578032 -0.815705 -0.022468
			-0.607131  0.702714  0.370925
			 0.121825  0.992428 -0.015690
			 0.071006  0.520771 -0.850738
			-0.366804  0.472339 -0.801468
			 0.024553  0.999177 -0.032283
			 0.014885  0.466822 -0.884226
			-0.185506  0.606708 -0.772976
			-0.715266  0.504431 -0.483677
			-0.502097  0.858759 -0.102133
			-0.998031 -0.062341 -0.006851
			-0.373749 -0.236466 -0.896881
			-0.019568 -0.594818 -0.803623
			-0.239978 -0.587469 -0.772846
			-0.460585 -0.608900 -0.645834
			-0.793373  0.186588 -0.579434
			-0.777549  0.608229 -0.159609
			-0.735921  0.565159 -0.372849
			-0.726789  0.022121 -0.686504
			-0.677460  0.719545 -0.152653
			-0.575273  0.476660 -0.664723
			 0.066786  0.959559 -0.273470
			 0.923385  0.335595  0.186377
			 0.776790 -0.626973  0.059180
			 0.432666 -0.834523  0.341132
			 0.236019 -0.723878  0.648302
			 0.753046  0.433147  0.495283
			 0.100548 -0.449902  0.887400
			 0.157317 -0.508245  0.846722
			 0.821351  0.415683  0.390627
			 0.367400  0.894489 -0.254769
			 0.742110  0.601319  0.296122
			 0.185293  0.836878 -0.515075
			-0.615641  0.702756 -0.356540
			 0.630771  0.337386  0.698784
			 0.247597 -0.805070  0.539034
			 0.729205  0.650692  0.211804
			 0.354178  0.933466 -0.056554
			 0.248807  0.852691  0.459362
			 0.139151  0.978206  0.154111
			-0.594683  0.775198 -0.213123
			-0.171429  0.614002  0.770464
			 0.195398  0.763389  0.615676
			-0.066106  0.926171  0.371265
			 0.578707  0.163373  0.799004
			 0.708284  0.662612 -0.243473
			 0.858518  0.451888  0.242372
			 0.154585 -0.901424  0.404399
			-0.096379 -0.929941  0.354853
			 0.641823  0.668570  0.375603
			 0.674026  0.662615 -0.326544
			 0.326429 -0.900203  0.288235
			 0.239395  0.903702 -0.354984
			 0.356134  0.869812 -0.341461
			-0.210521  0.735579  0.643898
			-0.379104  0.920264  0.096921
			 0.253378  0.821145 -0.511391
			-0.235274  0.897484 -0.373054
			-0.910488 -0.406613 -0.075352
			-0.701717 -0.576276  0.418926
			-0.262745  0.326489 -0.907948
			 0.018925  0.563852 -0.825659
			 0.473754  0.802432 -0.362850
			 0.395486 -0.648770 -0.650145
			 0.916175 -0.202347 -0.345947
			 0.526277 -0.847194 -0.072768
			-0.693698  0.648606 -0.313199
			 0.092968  0.534016  0.840347
			-0.347404  0.410734  0.842975
			 0.041153  0.499199  0.865509
			-0.122513  0.417636  0.900317
			-0.754437  0.316627  0.574954
			-0.559420  0.815159  0.150218
			 0.007726 -0.615751  0.787903
			-0.373747 -0.236465  0.896882
			-0.086878 -0.762659  0.640939
			-0.402969 -0.762586  0.506041
			-0.876261  0.157636  0.455321
			-0.777551  0.608227  0.159609
			-0.735921  0.565159  0.372848
			-0.782645  0.005207  0.622447
			-0.704887  0.685978  0.180467
			-0.575273  0.476661  0.664722
			-0.310396 -0.459894  0.831956
			-0.998032 -0.062339  0.006849
		</DataArray>
	</PointData>
	<Points>
		<DataArray type="Float32" NumberOfComponents="3" format="ascii">
			-0.008923  0.017058  0.000150
			-0.015124  0.002492  0.000150
			-0.043160  0.019691  0.000150
			-0.042142  0.007778  0.000150
			-0.038037  0.007575  0.000150
			-0.031351  0.008528  0.000150
			-0.025379  0.007667  0.000150
			-0.020025  0.016705  0.000150
			-0.008276  0.017105 -0.004180
			 0.021375  0.008637 -0.007528
			 0.022232  0.008314  0.000150
			 0.019571 -0.005118  0.000150
			 0.019559 -0.005267 -0.002163
			 0.018290 -0.004992 -0.008543
			 0.015579 -0.002925 -0.015003
			 0.018416  0.010573 -0.011725
			 0.012069 -0.001703 -0.016757
			 0.009832  0.004257 -0.018399
			 0.016425  0.012504 -0.013341
			 0.008871  0.014782 -0.005159
			 0.010283  0.013082  0.000150
			 0.012687  0.016845 -0.013436
			 0.012185  0.010694 -0.017268
			 0.009633  0.019680 -0.011666
			 0.006615  0.016244 -0.009892
			 0.009525  0.006709 -0.022693
			 0.009779  0.008015 -0.023287
			 0.008333  0.008759 -0.023495
			 0.008101  0.009826 -0.019549
			 0.010810  0.018418 -0.014329
			 0.006888  0.017630 -0.010987
			 0.009728  0.017827 -0.015713
			 0.005080  0.010655 -0.018275
			 0.005384  0.013455 -0.016647
			 0.007252  0.009124 -0.026808
			 0.005747  0.011004 -0.025842
			 0.003778  0.012398 -0.033396
			 0.001292  0.011772 -0.034068
			 0.004357  0.009284 -0.030448
			 0.007223  0.007820 -0.027731
			 0.004513  0.019701 -0.031712
			 0.002963  0.012329 -0.025088
			 0.002916  0.012664 -0.021423
			 0.002111  0.017002 -0.018871
			 0.005434  0.023920 -0.026828
			 0.003181  0.022271 -0.029154
			 0.003950  0.013362 -0.013145
			-0.000277  0.013919 -0.013731
			 0.007848  0.014736 -0.002391
			 0.000167  0.000668 -0.004101
			 0.000001 -0.000008  0.000150
			-0.000904  0.002060 -0.009825
			 0.003287  0.006660 -0.010931
			 0.000722  0.013049 -0.012269
			-0.002736  0.018373 -0.012190
			-0.008609  0.006410 -0.009838
			-0.009212  0.016427 -0.001485
			-0.015122  0.002494 -0.002122
			-0.009233  0.017226 -0.004960
			-0.036978  0.017879  0.000150
			-0.037315  0.015866 -0.003528
			-0.044652  0.015633 -0.004316
			-0.020986  0.016778  0.000150
			-0.031826  0.014568 -0.003752
			-0.024468  0.012680 -0.005270
			-0.012276  0.012095 -0.011813
			-0.005246  0.015428 -0.022884
			-0.046158  0.010700 -0.004210
			-0.042138  0.007782 -0.005446
			-0.038033  0.007579 -0.005593
			-0.031347  0.008532 -0.005751
			-0.025374  0.007671 -0.006678
			-0.015340  0.005075 -0.012267
			-0.013898  0.005479 -0.017400
			-0.009023  0.010848 -0.024598
			-0.012791  0.005519 -0.023082
			-0.002562  0.015943 -0.025530
			-0.000721  0.015005 -0.029666
			-0.008276  0.017105  0.004480
			 0.021375  0.008637  0.007829
			 0.019559 -0.005267  0.002464
			 0.018290 -0.004992  0.008844
			 0.015579 -0.002925  0.015304
			 0.018416  0.010573  0.012025
			 0.012069 -0.001703  0.017058
			 0.009832  0.004257  0.018699
			 0.016425  0.012504  0.013641
			 0.008871  0.014782  0.005460
			 0.012687  0.016845  0.013736
			 0.009633  0.019680  0.011966
			 0.006615  0.016244  0.010193
			 0.012185  0.010694  0.017569
			 0.009525  0.006709  0.022994
			 0.009779  0.008015  0.023587
			 0.008333  0.008759  0.023796
			 0.008101  0.009826  0.019850
			 0.010810  0.018418  0.014630
			 0.006888  0.017630  0.011288
			 0.009728  0.017827  0.016013
			 0.005080  0.010655  0.018576
			 0.005384  0.013455  0.016948
			 0.003778  0.012398  0.033696
			 0.005747  0.011004  0.026143
			 0.007252  0.009124  0.027108
			 0.007223  0.007820  0.028032
			 0.004357  0.009284  0.030748
			 0.004513  0.019701  0.032012
			 0.002963  0.012329  0.025388
			 0.002916  0.012664  0.021723
			 0.002111  0.017002  0.019171
			 0.005434  0.023920  0.027129
			 0.003181  0.022271  0.029454
			 0.003950  0.013362  0.013446
			-0.000277  0.013919  0.014032
			 0.007848  0.014736  0.002691
			 0.000167  0.000668  0.004401
			-0.000904  0.002060  0.010126
			 0.003287  0.006660  0.011231
			 0.000722  0.013049  0.012570
			-0.002736  0.018373  0.012491
			-0.008609  0.006410  0.010139
			-0.009212  0.016427  0.001786
			-0.015122  0.002494  0.002422
			-0.009233  0.017226  0.005260
			-0.037315  0.015866  0.003828
			-0.044652  0.015633  0.004617
			-0.031826  0.014568  0.004053
			-0.024468  0.012680  0.005571
			-0.012276  0.012095  0.012113
			-0.005246  0.015428  0.023185
			-0.038033  0.007579  0.005893
			-0.042138  0.007782  0.005746
			-0.031347  0.008532  0.006052
			-0.025374  0.007671  0.006979
			-0.015340  0.005075  0.012567
			-0.013898  0.005479  0.017700
			-0.009023  0.010848  0.024898
			-0.012791  0.005519  0.023382
			-0.002562  0.015943  0.025830
			-0.000721  0.015005  0.029967
			 0.001292  0.011772  0.034369
			-0.046158  0.010700  0.004511
		</DataArray>
	</Points>
			<Polys>
				<DataArray type="Int32" Name="connectivity" format="ascii">
					7 0 8 
					9 10 11 12 
					13 9 12 
					14 15 9 13 
					16 15 14 
					17 18 15 16 
					18 19 15 
					15 19 9 
					19 20 10 9 
					18 21 23 19 
					23 24 19 
					17 22 18 
					17 25 26 22 
					26 27 28 22 
					21 29 23 
					29 30 24 23 
					22 31 29 21 
					22 28 31 
					28 32 31 
					32 33 31 
					36 35 34 
					39 38 36 34 
					35 40 41 
					32 42 43 33 
					42 44 43 
					42 45 44 
					42 41 40 45 
					29 31 46 30 
					31 33 46 
					33 43 47 46 
					19 48 20 
					19 24 48 
					48 24 49 50 
					24 51 49 
					24 52 51 
					24 30 53 52 
					30 46 53 
					46 47 53 
					53 47 54 55 
					54 56 55 
					55 56 57 
					54 8 56 
					54 58 8 
					57 56 0 
					53 55 52 
					52 55 51 
					59 60 61 2 
					62 63 60 59 
					64 63 62 
					8 62 7 
					8 65 64 62 
					54 66 65 58 
					63 69 68 
					60 63 68 
					63 64 70 69 
					64 65 71 70 
					65 72 71 
					65 66 72 
					73 74 75 
					72 66 74 
					72 74 73 
					66 76 74 
					76 77 74 
					74 77 75 
					77 37 75 
					77 36 37 
					40 36 77 
					45 40 77 
					54 47 66 
					66 43 44 76 
					43 66 47 
					18 22 21 
					45 76 44 
					77 76 45 
					13 49 51 14 
					14 51 16 
					16 51 17 
					42 51 55 
					38 37 36 
					42 75 37 
					42 55 72 75 
					55 57 71 72 
					51 42 17 
					42 37 38 
					3 2 68 
					3 68 69 4 
					4 69 70 5 
					5 70 71 6 
					71 57 1 6 
					1 57 0 
					61 67 2 
					67 68 2 
					72 73 75 
					68 61 60 
					67 61 68 
					49 13 12 11 50 
					65 8 58 
					0 56 8 
					35 36 40 
					20 48 50 
					41 42 28 27 
					42 32 28 
					25 39 34 26 
					35 41 27 
					34 35 27 26 
					39 25 42 
					25 17 42 
					42 38 39 
					78 0 7 
					80 11 10 79 
					80 79 81 
					81 79 83 82 
					82 83 84 
					84 83 86 85 
					83 87 86 
					79 87 83 
					79 10 20 87 
					87 89 88 86 
					87 90 89 
					86 91 85 
					91 93 92 85 
					91 95 94 93 
					89 96 88 
					89 90 97 96 
					88 96 98 91 
					98 95 91 
					98 99 95 
					98 100 99 
					103 102 101 
					103 101 105 104 
					107 106 102 
					100 109 108 99 
					109 110 108 
					110 111 108 
					111 106 107 108 
					97 112 98 96 
					112 100 98 
					112 113 109 100 
					20 114 87 
					114 90 87 
					50 115 90 114 
					115 116 90 
					116 117 90 
					117 118 97 90 
					118 112 97 
					118 113 112 
					120 119 113 118 
					120 121 119 
					122 121 120 
					121 78 119 
					78 123 119 
					0 121 122 
					117 120 118 
					116 120 117 
					2 125 124 59 
					59 124 126 62 
					62 126 127 
					7 62 78 
					62 127 128 78 
					123 128 129 119 
					131 130 126 
					131 126 124 
					130 132 127 126 
					132 133 128 127 
					133 134 128 
					134 129 128 
					137 136 135 
					136 129 134 
					135 136 134 
					136 138 129 
					136 139 138 
					137 139 136 
					137 140 139 
					140 101 139 
					139 101 106 
					139 106 111 
					129 113 119 
					138 110 109 129 
					113 129 109 
					88 91 86 
					110 138 111 
					111 138 139 
					82 116 115 81 
					84 116 82 
					85 116 84 
					120 116 108 
					101 140 105 
					140 137 108 
					137 134 120 108 
					134 133 122 120 
					85 108 116 
					105 140 108 
					131 2 3 
					4 130 131 3 
					5 132 130 4 
					6 133 132 5 
					6 1 122 133 
					0 122 1 
					2 141 125 
					2 131 141 
					137 135 134 
					124 125 131 
					131 125 141 
					50 11 80 81 115 
					123 78 128 
					78 121 0 
					106 101 102 
					50 114 20 
					94 95 108 107 
					95 99 108 
					93 103 104 92 
					94 107 102 
					93 94 102 103 
					108 92 104 
					108 85 92 
					104 105 108 
				</DataArray>
				<DataArray type="Int32" Name="offsets" format="ascii">
					3 7 10 14 17 21 24 27 31 35 38 41 45 49 52 56 60 63 66 69 72 76 79 83 86 89 93 97 100 104 107 110 114 117 120 124 127 130 134 137 140 143 146 149 152 155 159 163 166 169 173 177 180 183 187 191 194 197 200 203 206 209 212 215 218 221 224 227 230 234 237 240 243 246 250 253 256 259 262 265 269 273 276 279 282 286 290 294 298 301 304 307 310 313 316 321 324 327 330 333 337 340 344 347 351 354 357 360 363 367 370 374 377 381 384 387 391 395 398 401 405 409 412 416 420 423 426 429 432 436 439 443 446 449 453 457 460 464 467 470 474 477 480 484 487 490 494 497 500 503 506 509 512 515 519 523 526 529 533 537 540 543 547 551 554 557 560 563 566 569 572 575 578 581 584 587 590 594 597 600 603 606 610 613 616 619 622 625 629 633 636 639 642 646 650 654 658 661 664 667 670 673 676 681 684 687 690 693 697 700 704 707 711 714 717 720 
				</DataArray>
			</Polys>
		</Piece>
	</PolyData>
</VTKFile>
