<?xml version="1.0"?>
<VTKFile type="PolyData" version="0.1" byte_order="LittleEndian" compressor="vtkZLibDataCompressor">
	<PolyData>
		<Piece NumberOfPoints="122" NumberOfVerts="0" NumberOfLines="0" NumberOfStrips="0" NumberOfPolys="130">
		<PointData Normals="Normals">
		<DataArray type="Float32" Name="Normals" NumberOfComponents="3" format="ascii">
			 0.739011 -0.611425  0.282882
			 0.454458 -0.785139 -0.420744
			 0.797393 -0.534376 -0.280368
			 0.825323 -0.562009 -0.054663
			 0.786104 -0.615131  0.060448
			 0.664331 -0.660884  0.349136
			 0.253293 -0.713246  0.653547
			-0.068856 -0.656292  0.751359
			-0.025283 -0.871420  0.489885
			 0.097156 -0.982108 -0.161320
			 0.219613 -0.933992 -0.281832
			 0.092759 -0.269543 -0.958511
			 0.564620 -0.170404 -0.807568
			-0.318856 -0.473248 -0.821199
			 0.935750 -0.128250 -0.328519
			 0.955708 -0.098335  0.277403
			 0.614056 -0.043133  0.788083
			-0.052480  0.076921  0.995655
			-0.586484  0.006758  0.809933
			-0.846082 -0.393002  0.360133
			-0.730573 -0.600137 -0.325730
			 0.322190 -0.125363 -0.938338
			 0.696073  0.014801 -0.717819
			-0.183504 -0.275956 -0.943491
			 0.940913  0.184893 -0.283719
			-0.788032 -0.412251 -0.457226
			 0.926850  0.277822  0.252515
			 0.578972  0.265195  0.771014
			 0.180795  0.223407  0.957811
			-0.174025  0.136114  0.975289
			-0.803730 -0.203167  0.559233
			-0.271435  0.230431 -0.934465
			 0.343823  0.136572 -0.929050
			-0.702267  0.372298 -0.606807
			 0.922158  0.083694 -0.377650
			-0.903241  0.423982 -0.066299
			 0.990686  0.065038  0.119632
			-0.882138  0.246057  0.401608
			 0.742996  0.045000  0.667781
			 0.331556  0.004065  0.943427
			-0.203660  0.002118  0.979039
			-0.465676  0.175423 -0.867394
			 0.498369  0.046752 -0.865704
			-0.934738  0.339805  0.103908
			 0.952209  0.010722 -0.305258
			-0.796513  0.470079  0.380253
			 0.952398  0.007110  0.304775
			-0.948974  0.310776  0.053547
			 0.410263  0.010063  0.911912
			-0.781507  0.029749  0.623187
			-0.122115  0.008505  0.992479
			-0.121972 -0.013602 -0.992440
			 0.755345 -0.028809 -0.654694
			-0.986988  0.047323 -0.153676
			 0.979756 -0.025479 -0.198569
			-0.966836  0.091757  0.238344
			 0.833996 -0.024079  0.551245
			-0.992789  0.060514  0.103482
			 0.034149 -0.015007  0.999304
			-0.707980 -0.001342  0.706231
			-0.112888 -0.014298  0.993505
			-0.180904 -0.003793 -0.983494
			 0.708135 -0.005007 -0.706059
			-0.961814  0.005678 -0.273643
			 0.971918 -0.000040 -0.235320
			-0.996048  0.010014  0.088253
			 0.955586  0.003574  0.294692
			-0.975312 -0.006476  0.220735
			 0.480290 -0.019424  0.876895
			-0.037046 -0.103376  0.993952
			 0.538404 -0.063686  0.840277
			-0.188712  0.012112 -0.981958
			 0.648732  0.017247 -0.760821
			-0.920888  0.001359 -0.389825
			 0.962109  0.019791 -0.271945
			-0.999996 -0.002561  0.000638
			 0.999468  0.020673  0.025226
			-0.999029 -0.021631  0.038373
			 0.865885 -0.034187  0.499074
			-0.206794 -0.389958  0.897312
			 0.707113 -0.152435  0.690474
			-0.256734  0.033735 -0.965893
			 0.371406  0.042785 -0.927484
			-0.749601 -0.011447 -0.661791
			 0.922697 -0.009125 -0.385419
			-0.984463 -0.032549 -0.172546
			 0.998963 -0.041389 -0.018962
			-0.996618 -0.030899 -0.076138
			 0.925684 -0.063780  0.372882
			-0.919628 -0.167587  0.355244
			 0.496790 -0.151017  0.854631
			-0.159366  0.027779 -0.986829
			-0.008626  0.017308 -0.999813
			-0.234179 -0.069770 -0.969687
			 0.772494 -0.310126 -0.554143
			-0.889831 -0.141755 -0.433712
			 0.826287 -0.494442  0.269771
			-0.976307 -0.096599  0.193629
			 0.617882 -0.153126  0.771216
			-0.778041  0.217116  0.589503
			-0.023355  0.310552  0.950269
			 0.055689  0.045570 -0.997408
			-0.009342  0.036534 -0.999289
			 0.150980  0.075067 -0.985682
			 0.773058 -0.092933 -0.627491
			-0.757958  0.158971 -0.632636
			 0.840090 -0.198869  0.504678
			-0.811578  0.289748  0.507334
			 0.402741  0.178587  0.897723
			-0.148556  0.572094  0.806622
			 0.211000  0.586738  0.781804
			 0.180890  0.337372 -0.923829
			-0.074017  0.459501 -0.885088
			 0.563703  0.349530 -0.748377
			 0.460051  0.769818 -0.442418
			 0.334174  0.755429 -0.563608
			 0.606117  0.794206  0.043128
			 0.284902  0.929916  0.232566
			 0.585391  0.802003  0.118782
			 0.555447  0.804560  0.210146
			 0.595300  0.797710  0.096317
			 0.518056  0.739163 -0.430415
		</DataArray>
	</PointData>
	<Points>
		<DataArray type="Float32" NumberOfComponents="3" format="ascii">
			-0.004000 -0.425441  0.030000
			-0.004000 -0.431823  0.024600
			-0.000350 -0.424433  0.024976
			 0.002676 -0.417044  0.027831
			 0.002676 -0.417044  0.032169
			 0.001476 -0.419899  0.037536
			-0.004000 -0.422753  0.041610
			-0.008047 -0.425945  0.035570
			-0.006055 -0.429136  0.030668
			-0.006055 -0.429136  0.029332
			-0.006222 -0.430480  0.026942
			-0.004000 -0.422082  0.024060
			 0.001713 -0.415363  0.022137
			-0.008285 -0.420571  0.024102
			 0.008839 -0.408645  0.025828
			 0.008839 -0.408645  0.034171
			 0.004094 -0.409821  0.041140
			-0.004000 -0.410996  0.044040
			-0.010665 -0.415029  0.039175
			-0.012217 -0.419059  0.032670
			-0.012217 -0.419059  0.027330
			-0.004000 -0.410660  0.020010
			 0.001237 -0.404111  0.022792
			-0.011221 -0.411500  0.020061
			 0.003447 -0.397560  0.027580
			-0.017866 -0.412340  0.025495
			 0.003447 -0.397560  0.032420
			-0.000270 -0.394706  0.035134
			-0.004000 -0.391850  0.034860
			-0.009713 -0.402096  0.037863
			-0.017866 -0.412340  0.034505
			-0.004000 -0.392520  0.022440
			 0.000126 -0.387819  0.024321
			-0.010745 -0.398736  0.020716
			 0.002162 -0.383116  0.027997
			-0.018637 -0.404950  0.025244
			 0.002162 -0.383116  0.032002
			-0.018637 -0.404950  0.034756
			-0.000509 -0.370015  0.034805
			-0.004000 -0.356915  0.035400
			-0.010110 -0.380934  0.038410
			-0.004000 -0.382444  0.024330
			-0.000826 -0.365481  0.025631
			-0.008443 -0.392018  0.023884
			 0.000879 -0.348518  0.028414
			-0.012987 -0.401592  0.027079
			 0.000879 -0.348518  0.031586
			-0.012987 -0.401592  0.032921
			-0.000985 -0.301996  0.034150
			-0.008285 -0.328532  0.035898
			-0.004000 -0.255471  0.035130
			-0.004000 -0.322989  0.021090
			 0.000840 -0.301155  0.023337
			-0.008206 -0.352382  0.024211
			 0.003190 -0.279321  0.027664
			-0.009135 -0.381773  0.028331
			 0.003190 -0.279321  0.032336
			-0.009135 -0.381773  0.031669
			-0.000905 -0.218354  0.034260
			-0.006460 -0.269580  0.033386
			-0.004000 -0.157387  0.032970
			-0.004000 -0.255471  0.020010
			 0.001555 -0.226584  0.022354
			-0.007967 -0.285200  0.024539
			 0.004474 -0.197696  0.027247
			-0.007338 -0.314928  0.028916
			 0.004474 -0.197696  0.032753
			-0.007338 -0.314928  0.031084
			 0.000364 -0.160746  0.036007
			-0.006777 -0.219362  0.033822
			-0.004000 -0.123797  0.035940
			-0.004000 -0.205421  0.020010
			 0.001237 -0.176366  0.022792
			-0.008126 -0.210460  0.024321
			 0.003447 -0.147310  0.027580
			-0.007852 -0.215499  0.028748
			 0.003447 -0.147310  0.032420
			-0.007852 -0.215499  0.031252
			 0.001555 -0.121949  0.037645
			-0.008443 -0.156043  0.036116
			-0.004000 -0.096588  0.041070
			-0.004000 -0.154364  0.021630
			 0.000443 -0.125979  0.023884
			-0.007650 -0.151340  0.024976
			 0.002420 -0.097595  0.027914
			-0.007852 -0.148318  0.028748
			 0.002420 -0.097595  0.032086
			-0.007852 -0.148318  0.031252
			 0.003538 -0.091717  0.040376
			-0.010745 -0.117079  0.039284
			-0.004000 -0.085840  0.048900
			-0.004000 -0.120437  0.024330
			 0.000126 -0.101459  0.024321
			-0.007491 -0.118086  0.025195
			 0.003960 -0.082480  0.027413
			-0.009906 -0.115734  0.028081
			 0.003960 -0.082480  0.032587
			-0.009906 -0.115734  0.031919
			 0.003856 -0.077777  0.040813
			-0.011221 -0.094405  0.039939
			-0.004000 -0.073075  0.048360
			-0.004000 -0.083823  0.026490
			 0.001158 -0.081305  0.022901
			-0.009952 -0.077777  0.021809
			 0.009352 -0.078786  0.025661
			-0.019921 -0.071731  0.024827
			 0.009352 -0.078786  0.034339
			-0.019921 -0.071731  0.035173
			 0.003141 -0.072571  0.039830
			-0.011935 -0.069043  0.040922
			-0.004000 -0.066356  0.040260
			-0.004000 -0.070387  0.025950
			-0.000429 -0.068708  0.025085
			-0.006857 -0.063501  0.026068
			 0.003704 -0.067028  0.027497
			-0.009393 -0.056615  0.028248
			 0.003704 -0.067028  0.032503
			-0.009393 -0.056615  0.031752
			-0.000191 -0.064341  0.035242
			-0.007095 -0.059135  0.034260
			-0.004000 -0.061653  0.034860
			-0.004000 -0.065685  0.030000
		</DataArray>
	</Points>
			<Polys>
				<DataArray type="Int32" Name="connectivity" format="ascii">
					0 1 2 
					0 2 3 
					0 3 4 
					0 4 5 
					0 5 6 
					0 6 7 
					0 7 8 
					0 8 9 
					0 9 10 
					0 10 1 
					1 11 12 2 
					10 13 11 1 
					2 12 14 3 
					3 14 15 4 
					4 15 16 5 
					5 16 17 6 
					6 17 18 7 
					7 18 19 8 
					8 19 20 9 
					9 20 13 10 
					11 21 22 12 
					13 23 21 11 
					12 22 24 14 
					20 25 23 13 
					14 24 26 15 
					15 26 27 16 
					16 27 28 17 
					17 28 29 18 
					18 29 30 19 
					19 30 25 20 
					21 31 32 22 
					23 33 31 21 
					22 32 34 24 
					25 35 33 23 
					24 34 36 26 
					30 37 35 25 
					26 36 38 27 
					27 38 39 28 
					28 39 40 29 
					29 40 37 30 
					31 41 42 32 
					33 43 41 31 
					32 42 44 34 
					35 45 43 33 
					34 44 46 36 
					37 47 45 35 
					36 46 48 38 
					40 49 47 37 
					38 48 50 39 
					39 50 49 40 
					41 51 52 42 
					43 53 51 41 
					42 52 54 44 
					45 55 53 43 
					44 54 56 46 
					47 57 55 45 
					46 56 58 48 
					49 59 57 47 
					48 58 60 50 
					50 60 59 49 
					51 61 62 52 
					53 63 61 51 
					52 62 64 54 
					55 65 63 53 
					54 64 66 56 
					57 67 65 55 
					56 66 68 58 
					59 69 67 57 
					58 68 70 60 
					60 70 69 59 
					61 71 72 62 
					63 73 71 61 
					62 72 74 64 
					65 75 73 63 
					64 74 76 66 
					67 77 75 65 
					66 76 78 68 
					69 79 77 67 
					68 78 80 70 
					70 80 79 69 
					71 81 82 72 
					73 83 81 71 
					72 82 84 74 
					75 85 83 73 
					74 84 86 76 
					77 87 85 75 
					76 86 88 78 
					79 89 87 77 
					78 88 90 80 
					80 90 89 79 
					81 91 92 82 
					83 93 91 81 
					82 92 94 84 
					85 95 93 83 
					84 94 96 86 
					87 97 95 85 
					86 96 98 88 
					89 99 97 87 
					88 98 100 90 
					90 100 99 89 
					91 101 102 92 
					93 103 101 91 
					92 102 104 94 
					95 105 103 93 
					94 104 106 96 
					97 107 105 95 
					96 106 108 98 
					99 109 107 97 
					98 108 110 100 
					100 110 109 99 
					101 111 112 102 
					103 113 111 101 
					102 112 114 104 
					105 115 113 103 
					104 114 116 106 
					107 117 115 105 
					106 116 118 108 
					109 119 117 107 
					108 118 120 110 
					110 120 119 109 
					111 121 112 
					113 121 111 
					112 121 114 
					115 121 113 
					114 121 116 
					117 121 115 
					116 121 118 
					119 121 117 
					118 121 120 
					120 121 119 
				</DataArray>
				<DataArray type="Int32" Name="offsets" format="ascii">
					3 6 9 12 15 18 21 24 27 30 34 38 42 46 50 54 58 62 66 70 74 78 82 86 90 94 98 102 106 110 114 118 122 126 130 134 138 142 146 150 154 158 162 166 170 174 178 182 186 190 194 198 202 206 210 214 218 222 226 230 234 238 242 246 250 254 258 262 266 270 274 278 282 286 290 294 298 302 306 310 314 318 322 326 330 334 338 342 346 350 354 358 362 366 370 374 378 382 386 390 394 398 402 406 410 414 418 422 426 430 434 438 442 446 450 454 458 462 466 470 473 476 479 482 485 488 491 494 497 500 
				</DataArray>
			</Polys>
		</Piece>
	</PolyData>
</VTKFile>
