<?xml version="1.0"?>
<VTKFile type="PolyData" version="0.1" byte_order="LittleEndian" compressor="vtkZLibDataCompressor">
	<PolyData>
		<Piece NumberOfPoints="1459" NumberOfVerts="0" NumberOfLines="0" NumberOfStrips="0" NumberOfPolys="1796">
		<PointData Normals="Normals">
		<DataArray type="Float32" Name="Normals" NumberOfComponents="3" format="ascii">
			 0.898302 -0.075927  0.432769
			 0.991302 -0.123805 -0.044646
			 0.920961 -0.387432  0.041572
			 0.301055  0.951769  0.059169
			-0.784755  0.615922 -0.069277
			-0.780674  0.607718 -0.145692
			-0.821580  0.569787 -0.018687
			-0.860570  0.361263  0.359038
			 0.651915 -0.236159  0.720580
			 0.993113  0.093731 -0.070287
			 0.977780  0.206466 -0.036313
			 0.984610  0.174592 -0.007850
			 0.998701 -0.050941 -0.000821
			 0.962854 -0.270021 -0.001309
			 0.860165 -0.510008 -0.002959
			 0.540353 -0.841435 -0.002358
			 0.227844 -0.973689 -0.003974
			-0.224974 -0.973384  0.043713
			-0.742046 -0.668610  0.048255
			-0.969420 -0.245179  0.010581
			-0.946176  0.323578  0.006872
			-0.810453  0.585457  0.020147
			 0.843649 -0.187009  0.503273
			 0.903999 -0.177557  0.388922
			 0.866378 -0.386555  0.316171
			 0.845535 -0.434426 -0.310394
			 0.906704 -0.318859  0.276073
			 0.676351  0.734483  0.055528
			-0.544225  0.784889  0.296257
			 0.971241 -0.098084 -0.216957
			 0.790519 -0.216884 -0.572748
			 0.759037 -0.279968 -0.587776
			 0.652071  0.458808 -0.603572
			-0.273800  0.949760 -0.151624
			 0.995014 -0.094759 -0.031124
			 0.979266 -0.171405 -0.107978
			 0.896539 -0.131506 -0.422994
			 0.136260  0.852325 -0.504951
			 0.950338 -0.168400  0.261723
			 0.934193 -0.227506  0.274818
			 0.948369 -0.224840  0.223702
			 0.879859  0.394258  0.265346
			 0.968496 -0.220744 -0.115273
			 0.966245 -0.210086 -0.149111
			 0.958504 -0.265093 -0.104857
			 0.984796  0.080878 -0.153738
			 0.135048  0.990253  0.034067
			 0.907034 -0.138820 -0.397515
			 0.846569 -0.088580 -0.524857
			 0.757829 -0.230503 -0.610380
			 0.786823  0.046848 -0.615399
			 0.505273  0.660315 -0.555592
			 0.913412 -0.124392 -0.387564
			 0.921959 -0.088713 -0.376991
			 0.985349 -0.167508 -0.032064
			 0.925401  0.358386 -0.123257
			 0.980082 -0.159055 -0.118912
			 0.969840 -0.151451  0.190977
			 0.945978 -0.197159  0.257398
			 0.986246  0.068064  0.150622
			 0.211421  0.713061  0.668465
			 0.896398 -0.374894 -0.236485
			 0.959289 -0.103030 -0.262963
			 0.907904 -0.291312 -0.301411
			 0.946245  0.010050 -0.323294
			 0.881093  0.427289 -0.202732
			 0.461163  0.877016 -0.134803
			 0.760067 -0.269420 -0.591364
			 0.682321  0.149340 -0.715637
			 0.378004 -0.102341 -0.920130
			 0.581552  0.050892 -0.811916
			 0.588346  0.377524 -0.715069
			 0.003090  0.919351 -0.393427
			 0.699131  0.064830 -0.712049
			 0.223999  0.936544  0.269648
			 0.641366 -0.045875 -0.765862
			 0.792151 -0.023800 -0.609861
			 0.043890  0.779142 -0.625309
			 0.868485 -0.225657 -0.441377
			 0.959258 -0.059660 -0.276161
			 0.946957 -0.319912 -0.030488
			 0.998792  0.044594 -0.020657
			 0.707309  0.646443  0.286052
			 0.695803 -0.220136 -0.683665
			 0.720373 -0.171963 -0.671931
			 0.749903 -0.235090 -0.618368
			 0.770310  0.179602 -0.611854
			 0.527027  0.751176 -0.397463
			 0.048435  0.793675  0.606411
			 0.348943  0.086662 -0.933128
			 0.124711  0.102032 -0.986933
			 0.040454 -0.003397 -0.999176
			 0.057014  0.354322 -0.933384
			-0.248021  0.968317 -0.029109
			 0.674427  0.126776 -0.727376
			 0.568605  0.145111 -0.809711
			 0.504189  0.399874 -0.765437
			 0.046488  0.983847 -0.172867
			 0.583344 -0.136154 -0.800732
			 0.721771  0.013873 -0.691993
			 0.900854 -0.056737 -0.430399
			 0.880991  0.422453 -0.213044
			 0.308819  0.875231  0.372292
			 0.393199  0.773093  0.497717
			 0.330169  0.847731  0.415140
			 0.490999  0.140837 -0.859701
			 0.430295  0.089332 -0.898257
			 0.444073 -0.005536 -0.895973
			 0.311588  0.713158 -0.627948
			-0.023515  0.970410  0.240315
			-0.033693  0.962278  0.269975
			 0.471699  0.338325 -0.814271
			 0.105374  0.400861 -0.910059
			 0.322521  0.069427 -0.944013
			 0.305412  0.802343 -0.512805
			-0.371667  0.901332  0.222406
			-0.214450  0.949518  0.228970
			 0.525162  0.337703 -0.781128
			 0.699143  0.501535 -0.509570
			 0.815071  0.128489 -0.564934
			 0.280082  0.947046 -0.157030
			 0.017139  0.998650 -0.049033
			 0.724828  0.181194 -0.664676
			 0.914179 -0.011084 -0.405159
			 0.912676 -0.053043 -0.405228
			 0.806128  0.544434 -0.231836
			 0.080361  0.992433  0.092838
			 0.164778  0.954591 -0.248204
			 0.464800  0.087830 -0.881049
			 0.500456 -0.019025 -0.865553
			 0.441439  0.001986 -0.897289
			 0.439365  0.638655 -0.631727
			 0.178696  0.981981  0.061491
			 0.319602  0.296508 -0.899965
			 0.276048  0.052174 -0.959727
			 0.263921 -0.032763 -0.963988
			 0.372508  0.462968 -0.804300
			 0.291026  0.952189 -0.092948
			 0.114414  0.989217 -0.091426
			 0.355904  0.464678 -0.810806
			 0.179535  0.179951 -0.967153
			 0.077697  0.068491 -0.994622
			 0.180142  0.479897 -0.858631
			 0.263934  0.957847 -0.113441
			 0.180171  0.975540  0.125940
			 0.349828  0.607016 -0.713549
			 0.031981  0.312713 -0.949309
			-0.285859  0.218653 -0.932993
			-0.073096  0.431823 -0.898992
			 0.027236  0.868576 -0.494807
			 0.310753  0.685195 -0.658741
			-0.062526  0.441456 -0.895102
			-0.474566  0.269339 -0.838000
			-0.156522  0.808952 -0.566654
			 0.263042  0.964682 -0.014071
			 0.459142  0.485150 -0.744189
			 0.270573  0.238633 -0.932655
			 0.310393  0.784721 -0.536534
			 0.464279  0.653400 -0.597924
			 0.725049  0.247299 -0.642765
			 0.822355  0.096359 -0.560757
			 0.641007  0.586755 -0.494801
			 0.342220  0.939310  0.024105
			-0.096043  0.994810 -0.033606
			 0.500500  0.798999 -0.333318
			 0.408210  0.512102 -0.755722
			 0.262471  0.289628 -0.920448
			 0.312980  0.732140 -0.604991
			 0.143360  0.972617  0.182933
			 0.145089  0.886894  0.438599
			 0.361117  0.927532 -0.096332
			 0.058312  0.809203 -0.584628
			-0.028951  0.388872 -0.920837
			 0.254978  0.785183 -0.564336
			 0.354958  0.897170  0.262852
			 0.584189  0.807705  0.079595
			 0.260271  0.793302 -0.550391
			-0.168975  0.456095 -0.873742
			-0.068994  0.890170 -0.450375
			 0.084339  0.951460  0.295991
			 0.353622  0.903683  0.241472
			 0.568340  0.815644  0.108232
			 0.669368  0.706558 -0.229613
			 0.412425  0.375424 -0.830038
			 0.561095  0.827530 -0.019141
			 0.167669  0.906095  0.388431
			 0.403048  0.832310  0.380541
			 0.717215  0.651930 -0.246149
			 0.786613  0.226847 -0.574264
			 0.745413  0.594811 -0.300932
			 0.419649  0.743802  0.520243
			 0.198055  0.493735  0.846759
			 0.092934  0.714914  0.693009
			 0.290600  0.615219  0.732842
			 0.433400  0.845986  0.310601
			 0.480372  0.462668 -0.745105
			 0.529175  0.719413 -0.449910
			 0.221024  0.845495  0.486093
			-0.013196  0.947787  0.318630
			 0.496126  0.531931  0.686228
			 0.349315  0.855395  0.382464
			 0.199769  0.684713 -0.700900
			 0.316380  0.816846 -0.482354
			 0.272397  0.887691  0.371220
			 0.081902  0.587729  0.804901
			 0.325082  0.765702  0.554998
			 0.493749  0.356418  0.793207
			 0.315038  0.788585  0.528096
			-0.385648  0.807485 -0.446368
			-0.248328  0.967590 -0.045850
			 0.135391  0.684760  0.716082
			 0.199693  0.605289  0.770550
			-0.309278  0.363957  0.878568
			-0.410776  0.687298  0.599070
			-0.841537  0.524845  0.127879
			 0.014885  0.859397  0.511091
			-0.670626 -0.122934  0.731538
			-0.749841 -0.349234  0.561938
			-0.612803  0.228214  0.756566
			-0.136189  0.857210  0.496632
			-0.482236 -0.212319  0.849923
			-0.500986 -0.145799  0.853086
			-0.102992  0.791920  0.601877
			-0.219273 -0.066601  0.973388
			-0.020901 -0.122072  0.992301
			 0.068508 -0.381459  0.921843
			 0.257529  0.513045  0.818818
			 0.131177  0.986759  0.095385
			-0.165936  0.155710  0.973766
			-0.251928 -0.110585  0.961407
			 0.058991  0.731844  0.678915
			-0.344264  0.044861  0.937801
			-0.484175 -0.095769  0.869714
			-0.516743  0.116826  0.848132
			 0.199774  0.945752  0.256211
			 0.402815  0.902356 -0.153280
			-0.307393 -0.033057  0.951008
			-0.301475 -0.363201  0.881588
			-0.193856 -0.161778  0.967599
			 0.118431  0.806680  0.579000
			 0.387237  0.920829 -0.046054
			-0.060319  0.060628  0.996336
			 0.016922 -0.314101  0.949239
			 0.252068 -0.349951  0.902217
			 0.300461  0.422023  0.855348
			 0.284421  0.958658 -0.008925
			 0.075182  0.230965  0.970053
			 0.096138 -0.008174  0.995335
			 0.146453  0.645394  0.749679
			-0.184702  0.329355  0.925964
			-0.464345  0.148848  0.873057
			-0.501415  0.081126  0.861395
			-0.259026  0.647932  0.716303
			-0.037151  0.981830 -0.186088
			-0.301022  0.292139  0.907767
			-0.406990  0.098245  0.908134
			-0.307549  0.137240  0.941583
			 0.077944  0.963239  0.257091
			-0.157730  0.283048  0.946047
			-0.217011  0.089470  0.972060
			-0.044367 -0.011210  0.998952
			 0.166042  0.785025  0.596796
			 0.286227  0.874880 -0.390716
			-0.277323  0.322644  0.904982
			-0.366587  0.257640  0.894000
			-0.312897  0.393564  0.864409
			-0.461439  0.241747  0.853599
			-0.689039  0.315428  0.652481
			-0.710043  0.426995  0.559924
			-0.517649  0.820859  0.241310
			-0.376246  0.245467  0.893412
			-0.193674 -0.052185  0.979677
			-0.338678  0.230120  0.912328
			-0.149015  0.794340  0.588913
			-0.263300  0.425391  0.865861
			-0.256359  0.143162  0.955921
			 0.012188  0.119222  0.992793
			 0.218990  0.808225  0.546641
			-0.106809  0.323699  0.940112
			-0.414155  0.226418  0.881596
			-0.207678  0.866662  0.453616
			-0.230919  0.479953  0.846358
			-0.516833  0.337418  0.786786
			-0.812479  0.227663  0.536701
			-0.442558  0.868534  0.223138
			-0.158988  0.981379  0.107788
			-0.304809  0.581405  0.754361
			-0.313888  0.332174  0.889458
			-0.320692 -0.009748  0.947133
			-0.185426  0.370974  0.909942
			 0.221800  0.940780  0.256394
			 0.099622  0.930339  0.352908
			-0.389211  0.594225  0.703854
			-0.302387  0.243243  0.921626
			 0.284020  0.888129  0.361331
			-0.643619  0.548642  0.533617
			-0.785821  0.424753  0.449521
			-0.746711  0.470871  0.469791
			-0.576105  0.813470  0.079808
			-0.615529  0.532569  0.580942
			-0.672256  0.367396  0.642723
			-0.631492  0.395100  0.667168
			-0.535160  0.517733  0.667500
			-0.515762  0.604716  0.606884
			-0.696864  0.475617  0.536814
			-0.729803  0.498714  0.467623
			-0.323193  0.735290  0.595730
			-0.689392  0.599022  0.407323
			-0.859744  0.469588  0.200816
			-0.811090  0.554824  0.185210
			-0.630158  0.774188  0.059437
			-0.720485  0.580151  0.379904
			-0.771315  0.439373  0.460462
			-0.686737  0.436951  0.580918
			-0.710592  0.519160  0.474901
			-0.671317  0.691302  0.267273
			-0.736943  0.631607  0.240807
			-0.753289  0.587478  0.295678
			-0.730552  0.680196  0.060223
			-0.748462  0.632928 -0.198004
			-0.704478  0.699147 -0.122083
			-0.533446  0.844898 -0.039790
			-0.821995  0.534636  0.196185
			-0.715576  0.685617  0.133716
			-0.721217  0.634436  0.278095
			-0.740285  0.446977  0.502184
			-0.572743  0.706261  0.416126
			-0.699842  0.636039  0.325077
			-0.869168  0.373133  0.324529
			 0.529991  0.484183  0.696187
			-0.145575  0.475568  0.867550
			 0.466427  0.385732  0.796025
			-0.169087  0.415407  0.893782
			 0.278312  0.386411  0.879335
			-0.231687  0.438517  0.868346
			 0.130185  0.420007  0.898135
			-0.281781  0.437413  0.853973
			 0.068706  0.412929  0.908168
			-0.329170  0.447876  0.831297
			-0.155470  0.418154  0.894973
			-0.393987  0.519720  0.758067
			-0.338822  0.343948  0.875728
			-0.431303  0.517557  0.738994
			-0.444429  0.302178  0.843310
			-0.522823  0.457734  0.719121
			-0.365026  0.222851  0.903932
			-0.489238  0.348380  0.799549
			-0.548134  0.289541  0.784675
			-0.304826  0.277785  0.910997
			-0.472756  0.451793  0.756561
			-0.706951  0.495562 -0.504618
			-0.664187  0.735046 -0.136243
			-0.137788  0.519008  0.843591
			-0.378972  0.174060  0.908891
			 0.114528  0.926810 -0.357639
			 0.535932  0.786132 -0.307852
			 0.660700  0.745591 -0.087006
			 0.652310  0.234513 -0.720760
			 0.967947  0.237154  0.082681
			 0.863176 -0.121502 -0.490065
			 0.674881 -0.151971 -0.722108
			 0.963584  0.254189 -0.083025
			 0.928249  0.310378  0.204985
			 0.946835  0.134829  0.292105
			 0.637848  0.513053  0.574392
			 0.649127 -0.116802  0.751659
			 0.565113 -0.098944  0.819059
			 0.870241  0.374591  0.319940
			 0.651433 -0.030674  0.758086
			 0.347317  0.204496  0.915179
			 0.081876  0.986237  0.143639
			-0.335358  0.547654  0.766557
			 0.200594  0.967293 -0.155263
			 0.400581  0.644197 -0.651572
			 0.345734 -0.430183 -0.833913
			 0.518003 -0.090302 -0.850599
			 0.325198  0.039903 -0.944804
			 0.241318 -0.081485 -0.967019
			 0.318934 -0.076280 -0.944702
			-0.306365  0.350457 -0.885054
			 0.382392 -0.122569 -0.915835
			 0.479976 -0.138298 -0.866312
			 0.460847 -0.146622 -0.875284
			-0.651347  0.565075 -0.506396
			 0.299922  0.943483 -0.141018
			 0.751969  0.058512 -0.656596
			 0.906473 -0.095000 -0.411439
			 0.903278 -0.208679 -0.374888
			 0.601555  0.686009  0.409296
			 0.447654  0.163527  0.879127
			 0.454397  0.075552  0.887590
			-0.258026  0.240664  0.935683
			-0.245463  0.583600  0.774054
			-0.235016  0.196195  0.951985
			 0.672084 -0.537310  0.509510
			 0.704193 -0.646515  0.293479
			 0.850724 -0.522539 -0.056762
			 0.744001 -0.609578  0.273636
			 0.779770 -0.605023 -0.160956
			 0.854742 -0.447203 -0.263488
			 0.874741 -0.475100 -0.095442
			 0.754520 -0.565802 -0.332517
			 0.778226 -0.627057 -0.034114
			 0.736757 -0.613950 -0.283291
			 0.523054 -0.339122 -0.781928
			 0.650303 -0.349806 -0.674346
			 0.556535 -0.172622 -0.812693
			 0.567867 -0.011568 -0.823039
			 0.590454  0.004234 -0.807060
			 0.458018  0.419539 -0.783714
			 0.496052  0.657477 -0.567148
			 0.619209  0.756355 -0.210969
			 0.602313  0.776079  0.186868
			 0.595972  0.593220  0.541209
			 0.532663  0.366405  0.762901
			 0.288271  0.259576  0.921694
			 0.007014  0.179719  0.983693
			-0.199334  0.179780  0.963299
			 0.991892 -0.028319 -0.123891
			 0.959671 -0.279236  0.032552
			 0.875516 -0.468357  0.118805
			 0.778382 -0.562961  0.277841
			 0.923642 -0.375200 -0.078176
			 0.934382 -0.349716 -0.068040
			 0.891894 -0.352181 -0.283714
			 0.934681 -0.220559 -0.278793
			 0.926886 -0.198467 -0.318579
			 0.862638 -0.258533 -0.434761
			 0.856233 -0.352097 -0.378012
			 0.673667 -0.196738 -0.712367
			 0.702554  0.032400 -0.710892
			 0.689927  0.054611 -0.721816
			 0.781781  0.250611 -0.570975
			 0.744256  0.338788 -0.575592
			 0.653100  0.493016 -0.574801
			 0.705984  0.528735 -0.471196
			 0.761537  0.564593 -0.318270
			 0.867462  0.475229  0.147199
			 0.634041  0.372493  0.677673
			 0.557244  0.117799  0.821951
			 0.665028 -0.057346  0.744613
			 0.653027 -0.012259  0.757236
			-0.466579  0.318664 -0.825080
			-0.606920 -0.275886 -0.745342
			-0.587220  0.720189 -0.369460
			-0.750711  0.646014 -0.138201
			-0.848671  0.304698  0.432338
			-0.878605  0.137635 -0.457285
			-0.962559  0.092648 -0.254748
			-0.977552  0.009602  0.210477
			-0.921849 -0.346452  0.173680
			-0.411270 -0.283111  0.866432
			-0.362034 -0.412060  0.836145
			 0.983668  0.165075 -0.071743
			 0.978780  0.070879 -0.192263
			 0.916383  0.039762 -0.398323
			 0.869194 -0.008058 -0.494406
			 0.814087  0.002626 -0.580737
			 0.618162 -0.386058 -0.684715
			 0.650687 -0.276728 -0.707127
			 0.729043 -0.172137 -0.662469
			 0.675892 -0.085918 -0.731975
			 0.766739 -0.161287 -0.621368
			 0.769691 -0.104416 -0.629820
			 0.614016  0.111727 -0.781346
			 0.592079  0.152681 -0.791285
			 0.543015  0.178887 -0.820448
			 0.549287  0.222717 -0.805407
			 0.542928  0.219706 -0.810530
			 0.673856  0.191890 -0.713510
			 0.812453  0.199002 -0.548012
			 0.912813  0.194678 -0.358990
			 0.988719  0.047724 -0.141974
			 0.992145 -0.088588 -0.088320
			 0.976378 -0.152170 -0.153396
			 0.938538 -0.205560 -0.277293
			 0.867989 -0.229932 -0.440144
			 0.983952  0.103938 -0.145039
			 0.961338  0.051588 -0.270497
			 0.885601  0.060127 -0.460538
			 0.872471  0.091591 -0.480005
			 0.701000  0.422298 -0.574685
			 0.595367  0.240565 -0.766594
			 0.818643 -0.038867 -0.572985
			 0.796570 -0.156877 -0.583838
			 0.707641 -0.037756 -0.705563
			 0.624396 -0.143483 -0.767817
			 0.583431 -0.289907 -0.758658
			 0.563018 -0.161325 -0.810546
			 0.432086 -0.045926 -0.900662
			 0.331872  0.010315 -0.943268
			 0.317327  0.052911 -0.946839
			 0.344386  0.045974 -0.937702
			 0.350760  0.029119 -0.936013
			 0.411544  0.008625 -0.911349
			 0.503030 -0.067967 -0.861592
			 0.551965 -0.092401 -0.828732
			 0.571263 -0.066315 -0.818083
			 0.570730 -0.097054 -0.815382
			 0.559294 -0.163343 -0.812717
			 0.500498 -0.151463 -0.852385
			 0.977423  0.051770 -0.204851
			 0.944812  0.071589 -0.319695
			 0.877775  0.084835 -0.471502
			 0.866711  0.023285 -0.498266
			 0.789156  0.091625 -0.607320
			 0.705411  0.307135 -0.638799
			 0.862794  0.068061 -0.500954
			 0.795229 -0.174174 -0.580753
			 0.684976 -0.165607 -0.709494
			 0.600670 -0.104674 -0.792615
			 0.541770 -0.214641 -0.812659
			 0.420817 -0.349030 -0.837312
			 0.296531 -0.203359 -0.933121
			 0.275870 -0.065845 -0.958937
			 0.295782 -0.051019 -0.953892
			 0.295207 -0.055880 -0.953798
			 0.278056 -0.048105 -0.959360
			 0.337932 -0.090822 -0.936778
			 0.386689 -0.150648 -0.909822
			 0.383171 -0.161131 -0.909514
			 0.379117 -0.080037 -0.921881
			 0.361389 -0.023344 -0.932123
			 0.355021 -0.074101 -0.931917
			 0.299140 -0.033226 -0.953631
			 0.980617 -0.139854 -0.137228
			 0.946965 -0.098941 -0.305725
			 0.863097 -0.050786 -0.502478
			 0.803336 -0.057377 -0.592755
			 0.772778 -0.147956 -0.617189
			 0.715499 -0.162849 -0.679369
			 0.696731 -0.226518 -0.680629
			 0.632575 -0.329818 -0.700763
			 0.512453 -0.394529 -0.762718
			 0.424746 -0.369778 -0.826351
			 0.340270 -0.418269 -0.842180
			 0.242685 -0.413856 -0.877398
			 0.227170 -0.289507 -0.929828
			 0.267493 -0.225917 -0.936701
			 0.299794 -0.103863 -0.948333
			 0.305734  0.000947 -0.952116
			 0.278713 -0.028749 -0.959944
			 0.212305 -0.153596 -0.965057
			 0.146382 -0.183553 -0.972050
			 0.137727 -0.168428 -0.976045
			 0.156599 -0.126892 -0.979477
			 0.199193 -0.015581 -0.979836
			 0.241097 -0.007390 -0.970473
			 0.303403  0.054761 -0.951288
			 0.813247 -0.581817 -0.010921
			 0.764796 -0.603092 -0.226643
			 0.729993 -0.428609 -0.532358
			 0.672216 -0.309147 -0.672722
			 0.630833 -0.329372 -0.702541
			 0.586321 -0.363038 -0.724176
			 0.497388 -0.498540 -0.709974
			 0.336627 -0.620404 -0.708365
			 0.195343 -0.645150 -0.738663
			 0.128251 -0.639767 -0.757793
			 0.131690 -0.587189 -0.798666
			 0.198066 -0.370532 -0.907456
			 0.248362 -0.288946 -0.924568
			 0.246294 -0.377293 -0.892742
			 0.207461 -0.408219 -0.888998
			 0.069125 -0.471386 -0.879214
			 0.006362 -0.269375 -0.963014
			 0.008507 -0.101052 -0.994845
			-0.052283 -0.126965 -0.990528
			-0.066570 -0.139400 -0.987996
			-0.040596 -0.131896 -0.990432
			 0.047083 -0.067905 -0.996580
			 0.182227 -0.026627 -0.982896
			 0.440882  0.043645 -0.896503
			 0.446176 -0.894941 -0.002800
			 0.359624 -0.922663 -0.139152
			 0.409511 -0.799957 -0.438599
			 0.417244 -0.665421 -0.618969
			 0.336267 -0.665222 -0.666637
			 0.219504 -0.708919 -0.670262
			 0.094415 -0.780615 -0.617840
			-0.017193 -0.792318 -0.609867
			-0.095690 -0.773606 -0.626400
			-0.110755 -0.793590 -0.598288
			-0.050935 -0.709958 -0.702400
			 0.038881 -0.581969 -0.812281
			 0.103251 -0.601303 -0.792322
			 0.079260 -0.628205 -0.774001
			-0.120017 -0.832528 -0.540826
			-0.455439 -0.836690 -0.304180
			-0.525701 -0.447475 -0.723467
			-0.276585 -0.048107 -0.959785
			-0.239448 -0.024375 -0.970603
			-0.248836 -0.090699 -0.964290
			-0.261725 -0.148425 -0.953662
			-0.173287 -0.151830 -0.973098
			-0.078976 -0.161088 -0.983775
			 0.108796 -0.212578 -0.971069
			 0.441260 -0.894347 -0.073709
			 0.339542 -0.924904 -0.171068
			 0.094605 -0.964787 -0.245429
			 0.000115 -0.942354 -0.334617
			-0.143807 -0.922616 -0.357910
			-0.213285 -0.875991 -0.432608
			-0.270371 -0.896203 -0.351737
			-0.398496 -0.895185 -0.199613
			-0.421131 -0.863834 -0.276478
			-0.360161 -0.881398 -0.305650
			-0.331983 -0.875170 -0.351943
			-0.329173 -0.879034 -0.344882
			-0.291560 -0.919648 -0.263134
			-0.327938 -0.917789 -0.223877
			-0.503887 -0.863769 -0.000568
			-0.751221 -0.657620  0.056592
			-0.864385 -0.348096 -0.362861
			-0.768005 -0.102639 -0.632166
			-0.760570  0.003983 -0.649244
			-0.688362 -0.037373 -0.724404
			-0.602089 -0.163835 -0.781439
			-0.550432 -0.233952 -0.801431
			-0.581087 -0.260939 -0.770876
			-0.618773 -0.308265 -0.722560
			-0.054008 -0.998533  0.003777
			-0.157989 -0.986892  0.032918
			-0.374092 -0.917028  0.138260
			-0.495889 -0.848763  0.183564
			-0.615215 -0.770028  0.169016
			-0.602734 -0.796787  0.042918
			-0.545588 -0.828298  0.127499
			-0.597449 -0.752695  0.276597
			-0.614922 -0.752563  0.235625
			-0.581698 -0.789390  0.196191
			-0.584761 -0.785120  0.204064
			-0.606933 -0.755104  0.247892
			-0.573164 -0.740275  0.351391
			-0.546407 -0.703871  0.453877
			-0.599091 -0.604786  0.524713
			-0.738169 -0.439515  0.511793
			-0.869868 -0.303492  0.388874
			-0.924594 -0.163138  0.344255
			-0.933473  0.005717  0.358601
			-0.971776  0.043047  0.231945
			-0.997489 -0.057245  0.041702
			-0.977519 -0.188616 -0.094241
			-0.968699 -0.244384 -0.043575
			-0.946320 -0.310154  0.091012
			-0.793761 -0.598686  0.107321
			-0.799505 -0.511854  0.314319
			-0.747708 -0.419414  0.514805
			-0.726771 -0.333768  0.600335
			-0.726877 -0.310747  0.612443
			-0.697799 -0.384098  0.604604
			-0.663106 -0.474454  0.578950
			-0.665760 -0.497890  0.555759
			-0.655726 -0.496042  0.569179
			-0.632030 -0.458886  0.624470
			-0.611439 -0.390770  0.688070
			-0.623638 -0.356064  0.695913
			-0.622370 -0.348986  0.700617
			-0.565806 -0.345616  0.748607
			-0.477327 -0.299846  0.825985
			-0.471391 -0.194448  0.860221
			-0.486813 -0.123086  0.864790
			-0.356183 -0.084460  0.930591
			-0.274040  0.055588  0.960110
			-0.374229  0.194859  0.906633
			-0.490454  0.206463  0.846657
			-0.613991  0.077708  0.785478
			-0.548381 -0.106533  0.829415
			-0.398588 -0.296476  0.867888
			-0.976308 -0.178931  0.121683
			-0.938122 -0.110998  0.328035
			-0.859027 -0.042824  0.510135
			-0.723005  0.042766  0.689518
			-0.583096  0.076138  0.808827
			-0.544718 -0.090133  0.833762
			-0.569846 -0.300052  0.765013
			-0.613540 -0.405623  0.677524
			-0.629032 -0.388035  0.673608
			-0.709452 -0.274001  0.649308
			-0.723868 -0.267493  0.635974
			-0.607961 -0.324181  0.724769
			-0.619800 -0.284548  0.731355
			-0.656361 -0.221242  0.721278
			-0.573499 -0.172879  0.800757
			-0.475954 -0.095507  0.874269
			-0.421656 -0.025952  0.906384
			-0.505032  0.069055  0.860334
			-0.481210  0.143458  0.864787
			-0.268074  0.157422  0.950450
			-0.187969  0.227613  0.955437
			-0.117635  0.223236  0.967640
			 0.049273  0.135205  0.989592
			 0.324326 -0.051318  0.944552
			-0.916249  0.331599  0.224791
			-0.823842  0.309531  0.474843
			-0.720182  0.289255  0.630611
			-0.652688  0.369793  0.661250
			-0.562342  0.384574  0.732034
			-0.401365  0.151111  0.903367
			-0.421119 -0.037405  0.906234
			-0.510180 -0.142589  0.848166
			-0.510420 -0.147389  0.847200
			-0.608472 -0.075237  0.790001
			-0.642357 -0.130456  0.755221
			-0.550275 -0.152852  0.820873
			-0.587762 -0.115007  0.800818
			-0.707481 -0.141666  0.692388
			-0.729497 -0.111661  0.674808
			-0.634410 -0.020786  0.772718
			-0.506548  0.034550  0.861519
			-0.613326  0.145492  0.776314
			-0.603737  0.217422  0.766961
			-0.295133  0.220826  0.929587
			-0.131954  0.289671  0.947987
			 0.006873  0.383337  0.923583
			 0.167120  0.401452  0.900504
			 0.367878  0.277897  0.887377
			-0.756867  0.609823  0.235092
			-0.602741  0.594612  0.532109
			-0.506350  0.559945  0.655798
			-0.458785  0.593380  0.661375
			-0.431945  0.473215  0.767783
			-0.392295  0.215390  0.894266
			-0.291943  0.203031  0.934638
			-0.292711  0.266888  0.918200
			-0.179777  0.258722  0.949075
			-0.254767  0.187793  0.948593
			-0.296232  0.096452  0.950234
			-0.390190  0.077004  0.917509
			-0.425610 -0.048335  0.903615
			-0.587828 -0.145897  0.795721
			-0.624029  0.008329  0.781357
			-0.609141  0.196281  0.768388
			-0.564034  0.223637  0.794891
			-0.470008  0.226421  0.853127
			-0.372080  0.286289  0.882947
			-0.354538  0.387410  0.851009
			-0.281135  0.412838  0.866330
			-0.232380  0.519358  0.822354
			-0.159804  0.515540  0.841832
			-0.089932  0.407422  0.908801
			 0.965741 -0.209299 -0.153423
			 0.880420 -0.261571 -0.395526
			 0.891768 -0.363245 -0.269819
			 0.780244 -0.509531  0.362765
			 0.857361 -0.467926 -0.214423
			 0.703706  0.710036 -0.025446
			-0.686938  0.701152 -0.191055
			 0.981509 -0.027987  0.189358
			 0.829406 -0.188976  0.525712
			 0.686340 -0.384049  0.617612
			 0.666191  0.415806  0.619109
			-0.295677  0.926892  0.231183
			 0.991490 -0.088616  0.095363
			 0.988185 -0.153142 -0.006098
			 0.885788 -0.180358  0.427611
			 0.194889  0.773195  0.603480
			 0.975735 -0.200345 -0.088339
			 0.908681 -0.232679 -0.346639
			 0.960173 -0.206442 -0.188282
			 0.919412  0.338722 -0.199873
			 0.963136 -0.205250  0.173903
			 0.979184 -0.179497  0.094763
			 0.964756 -0.221656  0.141827
			 0.969173  0.047959  0.241668
			 0.162551  0.986470  0.021293
			 0.881198 -0.150295  0.448219
			 0.830678 -0.088917  0.549607
			 0.751411 -0.168393  0.637985
			 0.777552  0.048994  0.626907
			 0.528397  0.845635  0.075485
			 0.884584 -0.112664  0.452567
			 0.869944 -0.044180  0.491168
			 0.985060 -0.132417  0.110105
			 0.864924  0.458011 -0.205261
			 0.900474 -0.151027  0.407845
			 0.991262 -0.121297 -0.051832
			 0.962438 -0.202885 -0.180416
			 0.983067  0.109669 -0.146807
			 0.187372  0.678732 -0.710081
			 0.780037 -0.444443  0.440468
			 0.933623 -0.196022  0.299874
			 0.902022 -0.292472  0.317517
			 0.948790  0.028935  0.314579
			 0.863638  0.459521  0.207291
			 0.522037  0.852680 -0.020369
			 0.755063 -0.343500  0.558470
			 0.651500  0.119035  0.749252
			 0.381288 -0.103278  0.918669
			 0.594538  0.081401  0.799936
			 0.588346  0.377524  0.715069
			 0.013855  0.945913  0.324123
			 0.696581  0.088768  0.711965
			 0.220402  0.934389 -0.279892
			 0.583623  0.027519  0.811558
			 0.784973 -0.024810  0.619033
			 0.041665  0.787128  0.615381
			 0.872367 -0.230670  0.431006
			 0.947750 -0.027363  0.317838
			 0.954380 -0.291563  0.064426
			 0.997673  0.042337  0.053440
			 0.736396  0.617862 -0.275621
			 0.716835 -0.235076  0.656420
			 0.718320 -0.182582  0.671327
			 0.746273 -0.207536  0.632460
			 0.760178  0.155123  0.630925
			 0.547173  0.722574  0.422479
			 0.048435  0.793675 -0.606411
			 0.378287  0.071598  0.922915
			 0.127722  0.107116  0.986009
			 0.013407  0.041394  0.999053
			 0.035471  0.377734  0.925235
			-0.255529  0.959594  0.117832
			 0.674427  0.126776  0.727376
			 0.556302  0.181944  0.810817
			 0.476134  0.446729  0.757450
			 0.032827  0.921051  0.388056
			 0.590855 -0.107884  0.799532
			 0.725664  0.038837  0.686953
			 0.908227 -0.037442  0.416800
			 0.826161  0.280357  0.488731
			 0.420482  0.904281  0.073967
			 0.463196  0.804297 -0.372230
			 0.328898  0.899778 -0.286752
			 0.394397  0.041085  0.918021
			 0.334832  0.016822  0.942128
			 0.455642  0.029343  0.889679
			 0.252246  0.534832  0.806428
			-0.058681  0.997235 -0.045602
			 0.011403  0.977598 -0.210170
			 0.334329  0.142369  0.931641
			-0.005936  0.191846  0.981407
			 0.018158  0.123167  0.992220
			 0.008021  0.657474  0.753435
			-0.332558  0.941463 -0.055246
			-0.159369  0.976902 -0.142349
			 0.484953  0.284434  0.826993
			 0.677023  0.332685  0.656476
			 0.243088 -0.036957  0.969300
			-0.015497  0.868817  0.494891
			 0.026506  0.986618  0.160881
			 0.707005  0.286083  0.646761
			 0.917020  0.100297  0.386025
			 0.880792 -0.159996  0.445654
			 0.639707  0.496224  0.586972
			 0.157154  0.987427  0.017050
			 0.149008  0.971819  0.182661
			 0.463739  0.108332  0.879324
			 0.449717  0.059954  0.891157
			 0.493251  0.051915  0.868336
			 0.499458  0.748860  0.435604
			 0.194481  0.968037 -0.158370
			 0.330868  0.255132  0.908534
			 0.230729  0.025720  0.972678
			 0.311098  0.033254  0.949796
			 0.356312  0.630179  0.689867
			 0.192021  0.975795 -0.104652
			 0.129965  0.983913  0.122572
			 0.320261  0.450676  0.833261
			 0.109042  0.104791  0.988498
			 0.072099  0.067927  0.995082
			 0.150091  0.485715  0.861135
			 0.243965  0.961814  0.124073
			 0.212547  0.972718 -0.092973
			 0.333811  0.568230  0.752120
			-0.019360  0.229772  0.973052
			-0.291497  0.177108  0.940033
			-0.109446  0.504138  0.856660
			-0.022521  0.938858  0.343568
			 0.306087  0.686106  0.659976
			-0.062526  0.441456  0.895102
			-0.487370  0.306166  0.817761
			-0.183410  0.844199  0.503675
			 0.345393  0.931175 -0.116690
			 0.403130  0.493823  0.770470
			 0.238277  0.255638  0.936949
			 0.310393  0.784721  0.536534
			 0.456001  0.666641  0.589621
			 0.671856  0.286524  0.683018
			 0.780499  0.125624  0.612405
			 0.636057  0.614512  0.466697
			 0.434395  0.867721 -0.241581
			 0.080743  0.971205 -0.224145
			 0.481630  0.683170  0.548918
			 0.336489  0.316558  0.886886
			 0.249371  0.232665  0.940043
			 0.272534  0.798823  0.536290
			 0.077450  0.943798 -0.321319
			 0.140856  0.903619 -0.404515
			 0.376325  0.854291  0.358561
			 0.045030  0.560018  0.827256
			-0.036755  0.327691  0.944070
			 0.194440  0.738212  0.645939
			 0.294184  0.935100 -0.197595
			 0.584538  0.807876 -0.075173
			 0.260648  0.782360  0.565664
			-0.146996  0.406810  0.901609
			-0.069336  0.820652  0.567207