<VTKFile type="PolyData" version="0.1" byte_order="LittleEndian">
  <PolyData>
    <Piece NumberOfPoints="212" NumberOfVerts="0" NumberOfLines="0" NumberOfStrips="0" NumberOfPolys="424">
      <PointData Normals="Normals">
        <DataArray type="Float32" Name="Normals" NumberOfComponents="3" format="ascii" RangeMin="0.99999996619" RangeMax="1.0000000311">
          0.076192587614 -0.99709314108 0 0.36667901278 -0.9207585454 -0.13323001564
          0.75164186954 -0.65957146883 0 0.53826326132 -0.65081042051 -0.53546094894
          0.32771244645 -0.38292202353 -0.86369860172 -0.95289576054 -0.30329808593 0
          -0.74700301886 -0.66461527348 0.016524996608 -0.92753499746 -0.23496688902 -0.29063612223
          -0.19485238194 -0.35720407963 -0.91347569227 0.36668035388 -0.92075800896 0.13323001564
          0.53826647997 -0.65080529451 0.53546392918 0.32770949602 -0.38291665912 0.8637021184
          -0.74700301886 -0.66461527348 -0.016524996608 -0.92753499746 -0.23496688902 0.29063612223
          -0.19485238194 -0.35720407963 0.91347569227 0.95514369011 -0.086912810802 -0.28310197592
          0.99742382765 0.07173396647 0 0.95514422655 -0.086909689009 0.28310105205
          0.6293888092 0.24935497344 -0.73599720001 0.229603827 0.27425831556 -0.93384391069
          -0.98959773779 0.12255897373 0.075337029994 -0.98978847265 0.14254382253 0
          -0.98959773779 0.12255897373 -0.075337029994 -0.81444996595 0.023197561502 -0.57976990938
          -0.34818783402 0.29395627975 -0.89014321566 -0.99088740349 0.042370233685 0.12785500288
          0.62938666344 0.24936249852 0.73599642515 0.229603827 0.27425831556 0.93384391069
          -0.34818783402 0.29395627975 0.89014321566 -0.81444996595 0.023197561502 0.57976990938
          -0.99088740349 0.042370233685 -0.12785500288 0.91420155764 0.1035772711 -0.39180007577
          0.99515599012 0.098308704793 0 0.91420155764 0.1035772711 0.39180007577
          0.60658293962 0.098846800625 -0.78885132074 0.20819179714 0.11034268886 -0.9718439579
          -0.96239674091 -0.039287332445 0.26879182458 -0.99607104063 -0.088557988405 0
          -0.96239674091 -0.039287332445 -0.26879182458 -0.1515288651 -0.55983287096 -0.81463253498
          -0.10832883418 -0.031544283032 -0.9936144948 -0.74586039782 -0.46874403954 0.47325608134
          0.60658293962 0.098846800625 0.78885132074 0.20819179714 0.11034268886 0.9718439579
          -0.10832883418 -0.031544283032 0.9936144948 -0.1515276134 -0.55983257294 0.81463295221
          -0.74585914612 -0.46874421835 -0.47325786948 0.90748137236 -0.17413428426 -0.38230195642
          0.99432730675 -0.10636362433 0 0.90748137236 -0.17413428426 0.38230195642
          0.55396980047 -0.25563186407 -0.79231929779 0.21184518933 -0.27514889836 -0.93777114153
          -0.96131116152 -0.048211067915 0.27121302485 -0.39875724912 0.0077008190565 0.91702419519
          -0.99985897541 -0.01679408364 0 -0.96131116152 -0.048211067915 -0.27121302485
          -0.39875724912 0.0077008190565 -0.91702419519 0.13891658187 -0.026776857674 -0.98994201422
          0.0061731520109 -0.27809524536 -0.96053367853 -0.14707639813 -0.75106495619 -0.6436380744
          -0.043341733515 -0.96473401785 -0.25963395834 0.52376419306 -0.45886978507 -0.71771132946
          0.71509742737 0.1469758004 0.683398664 0.55396980047 -0.25563186407 0.79231929779
          0.21184518933 -0.27514889836 0.93777114153 0.0061731520109 -0.27809524536 0.96053367853
          0.13891658187 -0.026776857674 0.98994201422 -0.043339550495 -0.9647346139 0.2596321702
          -0.14707416296 -0.75106465816 0.64363896847 0.52376431227 -0.45886862278 0.71771198511
          0.71509635448 0.14697530866 -0.6833999157 0.92103910446 -0.21210388839 -0.3266480267
          0.98450511694 -0.17535591125 0 0.92103910446 -0.21210388839 0.3266480267
          0.5844873786 -0.25047978759 -0.77177351713 0.17560140789 -0.30479761958 -0.93608897924
          -0.411632061 0.82268446684 0.39210879803 -0.19891287386 -0.0063556879759 0.979996562
          -0.66042608023 0.75089102983 0 -0.411632061 0.82268446684 -0.39210879803
          -0.19891287386 -0.0063556879759 -0.979996562 -0.17833344638 0.22014072537 -0.95902830362
          -0.085084885359 -0.1747815758 -0.98092401028 0.44314998388 0.65079092979 -0.6165137887
          -0.50291931629 -0.59974300861 -0.62239897251 -0.67109006643 -0.2883798182 -0.68298989534
          -0.453255862 -0.76878118515 -0.45114809275 0.82681256533 -0.37197846174 -0.42191591859
          -0.18852901459 -0.97663831711 -0.10312305391 0.79162847996 -0.011096278206 -0.61090195179
          0.89014053345 -0.21037524939 0.40421792865 0.97335153818 0.22931799293 0
          -0.44032135606 0.89784026146 0 -0.36485528946 0.50377613306 0.78300076723
          0.5844873786 -0.25047978759 0.77177351713 0.17560140789 -0.30479761958 0.93608897924
          -0.085084885359 -0.1747815758 0.98092401028 -0.17833344638 0.22014072537 0.95902830362
          0.44314998388 0.65079092979 0.6165137887 -0.6710921526 -0.28838226199 0.68298685551
          -0.50291854143 -0.59974354506 0.62239909172 -0.45325654745 -0.76878035069 0.451148808
          0.82681131363 -0.37198227644 0.42191502452 0.79162847996 -0.011096278206 0.61090195179
          -0.18852797151 -0.97663813829 0.10312699527 0.89014053345 -0.21037524939 -0.40421792865
          -0.36485686898 0.5037779212 -0.78299885988 0.74525171518 0.55762594938 -0.3655860126
          0.89561468363 0.44483065605 0 0.74525171518 0.55762594938 0.3655860126
          0.46147274971 0.69348758459 -0.55327916145 0.2367888093 0.49192082882 -0.83782154322
          -0.12222521007 0.46582913399 -0.87639272213 0.33269518614 0.85716748238 -0.39316385984
          0.05171726644 0.97867596149 0.19879303873 -0.5349291563 0.61997956038 0.57400012016
          0.017006920651 0.99985539913 0 -0.16919732094 0.89584684372 -0.41089016199
          0.051719456911 0.97867566347 -0.1987939477 0.33269518614 0.85716748238 0.39316385984
          -0.53493142128 0.61997944117 -0.57399815321 -0.16919732094 0.89584684372 0.41089016199
          -0.1972822547 0.76421022415 -0.61405414343 0.44215658307 0.72138464451 -0.5330119729
          -0.039256151766 0.016474202275 -0.99909335375 -0.81448829174 0.27449536324 -0.51113706827
          -0.4618665874 -0.53945761919 -0.70403462648 -0.68685340881 -0.39419904351 0.61060583591
          -0.91473275423 0.19732004404 0.35260289907 -0.064071901143 0.59636026621 -0.80015575886
          -0.24571196735 0.63007384539 -0.73663598299 0.93949770927 -0.24561694264 -0.23878097534
          0.04153445363 0.1111408025 -0.99293637276 -0.81805807352 -0.54340261221 -0.18840001523
          0.28219738603 -0.18196713924 -0.94194084406 -0.93692201376 0.28032001853 0.20880094171
          0.79722207785 -0.39250430465 0.45866909623 0.90274459124 -0.43017691374 0
          -0.5122243762 0.63154947758 -0.58204078674 -0.57385271788 0.81895852089 0
          -0.79585289955 0.56474745274 -0.21835401654 -0.87651628256 0.4312723875 0.21383005381
          -0.5122243762 0.63154947758 0.58204078674 -0.79585289955 0.56474745274 0.21835401654
          -0.87651515007 0.43127518892 -0.21382905543 -0.68559759855 0.39974746108 0.60840606689
          0.46147274971 0.69348758459 0.55327916145 0.2367888093 0.49192082882 0.83782154322
          -0.12222521007 0.46582913399 0.87639272213 -0.19728036225 0.76420927048 0.61405593157
          0.44215816259 0.72138595581 0.53300887346 -0.064076952636 0.59636163712 0.80015432835
          -0.46186611056 -0.53945851326 0.70403426886 -0.24571739137 0.6300739646 0.73663407564
          -0.81448751688 0.2744961679 0.51113784313 -0.039258003235 0.016474949196 0.99909329414
          -0.68685048819 -0.39419931173 -0.61060899496 -0.91473150253 0.19732378423 -0.35260403156
          0.93949770927 -0.24561694264 0.23878097534 0.04153445363 0.1111408025 0.99293637276
          0.28220331669 -0.18196305633 0.94193989038 -0.81805431843 -0.54340338707 0.18841409683
          -0.93692582846 0.28031617403 -0.20878896117 0.79722207785 -0.39250430465 -0.45866909623
          -0.68559461832 0.39974948764 -0.60840803385 -0.65856039524 0.52308410406 0.5410001874
          -0.30893930793 0.30595952272 0.90052497387 -0.65856039524 0.52308410406 -0.5410001874
          -0.30893221498 0.30595549941 -0.90052878857 -0.77572804689 -0.37801682949 -0.50532096624
          -0.71904617548 0.26431158185 -0.64273786545 -0.86261636019 -0.36952352524 -0.34546399117
          -0.77645659447 0.555164814 -0.29817312956 -0.62667149305 0.14701323211 -0.76529079676
          -0.88979256153 -0.44862604141 -0.083688996732 0.46042492986 -0.87478590012 -0.150859043
          0.35117003322 -0.81578242779 0.45954176784 0.76594227552 -0.64290934801 0
          0.35117003322 -0.81578242779 -0.45954176784 -0.57247585058 0.51526486874 -0.63778799772
          -0.50668525696 0.48343867064 -0.71383267641 -0.50096142292 0.86546957493 0
          -0.57247585058 0.51526486874 0.63778799772 -0.50668525696 0.48343867064 0.71383267641
          -0.77645659447 0.555164814 0.29817312956 -0.62667149305 0.14701323211 0.76529079676
          -0.88979256153 -0.44862604141 0.083688996732 -0.71904617548 0.26431158185 0.64273786545
          -0.77572804689 -0.37801682949 0.50532096624 -0.86261636019 -0.36952352524 0.34546399117
          0.46042492986 -0.87478590012 0.150859043 -0.41038951278 0.039629291743 -0.91104882956
          -0.48275095224 -0.86335873604 0.14684399962 -0.16886939108 -0.7051076293 -0.68869900703
          0.33693245053 -0.94152879715 0 -0.48275095224 -0.86335873604 -0.14684399962
          -0.16886939108 -0.7051076293 0.68869900703 -0.78659880161 0.61746448278 0
          -0.41038951278 0.039629291743 0.91104882956 -0.02473613061 0.18712185323 -0.98202520609
          -0.037362240255 -0.079594612122 -0.99612689018 0.10960180312 -0.62000495195 -0.77690494061
          -0.10469446331 -0.99450445175 0 0.10960180312 -0.62000495195 0.77690494061
          -0.037362240255 -0.079594612122 0.99612689018 -0.75784617662 -0.024315413088 -0.65198004246
          -0.94298279285 -0.33284151554 0 -0.75784617662 -0.024315413088 0.65198004246
          -0.02473613061 0.18712185323 0.98202520609 -0.34616434574 -0.59646576643 -0.7241538763
          -0.72840738297 -0.68514430523 0 -0.34616434574 -0.59646576643 0.7241538763
        </DataArray>
      </PointData>
      <CellData>
      </CellData>
      <Points>
        <DataArray type="Float32" Name="Points" NumberOfComponents="3" format="ascii" RangeMin="0.006406215694" RangeMax="0.048802884165">
          0.0027795422357 0.0057718059979 0 0.016272585839 0.007093093358 -0.0078152101487
          0.017001163214 0.0068015446886 0 0.012022690848 0.0074176881462 -0.015994079411
          0.0051562539302 0.0071883294731 -0.019976070151 -0.01247443445 0.0050643952563 0
          -0.012350452133 0.0047581400722 -0.0046936497092 -0.012707718648 0.0050188372843 -0.013903469779
          -0.008132558316 0.0068532796577 -0.020092651248 0.016272585839 0.007093093358 0.0078152101487
          0.012022690848 0.0074176881462 0.015994079411 0.0051562539302 0.0071883294731 0.019976070151
          -0.012350452133 0.0047581400722 0.0046936497092 -0.012707718648 0.0050188372843 0.013903469779
          -0.008132558316 0.0068532796577 0.020092651248 0.016943059862 0.0080767450854 -0.0093864304945
          0.016884468496 0.0086981309578 0 0.016943059862 0.0080767450854 0.0093864304945
          0.011472387239 0.010061842389 -0.015446850099 0.0043954993598 0.012365602888 -0.018779821694
          -0.011115055531 0.011650195345 -0.0043900199234 -0.011091759428 0.011519739404 0
          -0.011115055531 0.011650195345 0.0043900199234 -0.011023802683 0.013274163008 -0.01419666037
          -0.0055904360488 0.011712309904 -0.018919890746 -0.011921816505 0.013062728569 -0.0083824498579
          0.011472387239 0.010061842389 0.015446850099 0.0043954993598 0.012365602888 0.018779821694
          -0.0055904360488 0.011712309904 0.018919890746 -0.011023802683 0.013274163008 0.01419666037
          -0.011921816505 0.013062728569 0.0083824498579 0.015295632184 0.013751128688 -0.0091367401183
          0.016501678154 0.013340796344 0 0.015295632184 0.013751128688 0.0091367401183
          0.010355557315 0.014864087105 -0.01505883038 0.0046152868308 0.016627816483 -0.017077229917
          -0.010523228906 0.018981490284 -0.0056384704076 -0.010062333196 0.019021412358 0
          -0.010523228906 0.018981490284 0.0056384704076 -0.0094918953255 0.017664950341 -0.016929330304
          -0.0042207702063 0.01800307259 -0.017901990563 -0.012227784842 0.019500337541 -0.0086495401338
          0.010355557315 0.014864087105 0.01505883038 0.0046152868308 0.016627816483 0.017077229917
          -0.0042207702063 0.01800307259 0.017901990563 -0.0094918953255 0.017664950341 0.016929330304
          -0.012227784842 0.019500337541 0.0086495401338 0.015867639333 0.022029696032 -0.0088130999357
          0.017233310267 0.023159407079 0 0.015867639333 0.022029696032 0.0088130999357
          0.010430091061 0.022431591526 -0.015637381002 0.0058447481133 0.022460084409 -0.017152920365
          -0.011883659288 0.02505036816 -0.0058255200274 -0.01370595023 0.025440379977 -0.0090436497703
          -0.011201652698 0.025166101754 0 -0.011883659288 0.02505036816 0.0058255200274
          -0.01370595023 0.025440379977 0.0090436497703 -0.007988200523 0.023518724367 -0.018383098766
          -0.0035919279326 0.022636739537 -0.018028140068 -0.012407623231 0.019958648831 -0.018704131246
          -0.015217241831 0.017115309834 -0.015251100063 -0.014088747092 0.023229520768 -0.022372920066
          -0.019775686786 0.021641589701 -0.0032964299899 0.010430091061 0.022431591526 0.015637381002
          0.0058447481133 0.022460084409 0.017152920365 -0.0035919279326 0.022636739537 0.018028140068
          -0.007988200523 0.023518724367 0.018383098766 -0.015217241831 0.017115309834 0.015251100063
          -0.012407623231 0.019958648831 0.018704131246 -0.014088747092 0.023229520768 0.022372920066
          -0.019775686786 0.021641589701 0.0032964299899 0.017358517274 0.026655690745 -0.0097527001053
          0.017950884998 0.027058174834 0 0.017358517274 0.026655690745 0.0097527001053
          0.012466858141 0.026169881225 -0.016553489491 0.0066995518282 0.025539610535 -0.018970349804
          -0.011963123456 0.032141495496 -0.0074376300909 -0.012768394314 0.03044100292 -0.0097109396011
          -0.010470149107 0.031266178936 0 -0.011963123456 0.032141495496 0.0074376300909
          -0.012768394314 0.03044100292 0.0097109396011 -0.00867618341 0.027784571052 -0.01776192151
          -0.0012818274554 0.026882015169 -0.019893418998 -0.014492897317 0.028887640685 -0.017807159573
          -0.021112846211 0.021186273545 -0.015340710059 -0.022314628586 0.025390408933 -0.020654669032
          -0.01831019111 0.019037721679 -0.022097129375 -0.017225768417 0.014440929517 -0.0093864304945
          -0.019041316584 0.021204136312 -0.025856399909 -0.01750969328 0.0240683835 -0.028442040086
          -0.020447107032 0.010736469179 -0.004542269744 -0.020140437409 0.020255735144 0
          -0.027579018846 0.023173853755 0 -0.02118675597 0.027596747503 -0.0068660397083
          0.012466858141 0.026169881225 0.016553489491 0.0066995518282 0.025539610535 0.018970349804
          -0.0012818274554 0.026882015169 0.019893418998 -0.00867618341 0.027784571052 0.01776192151
          -0.014492897317 0.028887640685 0.017807159573 -0.022314628586 0.025390408933 0.020654669032
          -0.021112846211 0.021186273545 0.015340710059 -0.01831019111 0.019037721679 0.022097129375
          -0.017225768417 0.014440929517 0.0093864304945 -0.01750969328 0.0240683835 0.028442040086
          -0.019041316584 0.021204136312 0.025856399909 -0.020447107032 0.010736469179 0.004542269744
          -0.02118675597 0.027596747503 0.0068660397083 0.017277985811 0.03115465492 -0.0099319200963
          0.018064649776 0.031401693821 0 0.017277985811 0.03115465492 0.0099319200963
          0.012577686459 0.030877720565 -0.016781430691 0.0060808123089 0.030952261761 -0.019888199866
          -0.0023643893655 0.030384907499 -0.0200169608 -0.01412048284 0.03066637367 -0.012573240325
          -0.01913279295 0.036482311785 -0.014273219742 -0.019207200035 0.03384565562 -0.0089610004798
          0.0037970866542 0.031333532184 0 -0.010212418623 0.031699709594 -0.015267631039
          -0.01913279295 0.036482311785 0.014273219742 -0.01412048284 0.03066637367 0.012573240325
          -0.019207200035 0.03384565562 0.0089610004798 -0.010212418623 0.031699709594 0.015267631039
          -0.019054649398 0.029476167634 -0.025381380692 -0.01782469824 0.032466992736 -0.016416030005
          -0.02436020039 0.015011393465 -0.013814729638 -0.028571214527 0.013641615398 -0.011282159947
          -0.027019238099 0.027039723471 -0.018838109449 -0.027591625229 0.025829713792 -0.012649799697
          -0.025717062876 0.024393932894 -0.011309999973 -0.025972273201 0.035314057022 -0.017381729558
          -0.021584166214 0.031097749248 -0.018996449187 -0.018628925085 0.0084620844573 -0.010700129904
          -0.028844410554 0.0097256395966 -0.015225870535 -0.022746808827 0.022448843345 -0.028693471104
          -0.021025674418 0.024523394182 -0.031465288252 -0.022957315668 0.029348010197 -0.029096279293
          -0.02110888809 0.0057820668444 -0.0059638498351 -0.023188477382 0.011829041876 0
          -0.028936073184 0.019775543362 -0.0044039399363 -0.037675380707 0.014292900451 0
          -0.025466307998 0.018618568778 -0.0073932600208 -0.024977158755 0.022801980376 -0.0092733297497
          -0.028936073184 0.019775543362 0.0044039399363 -0.025466307998 0.018618568778 0.0073932600208
          -0.024977158755 0.022801980376 0.0092733297497 -0.022131597623 0.028138002381 -0.010118099861
          0.012577686459 0.030877720565 0.016781430691 0.0060808123089 0.030952261761 0.019888199866
          -0.0023643893655 0.030384907499 0.0200169608 -0.019054649398 0.029476167634 0.025381380692
          -0.01782469824 0.032466992736 0.016416030005 -0.025972273201 0.035314057022 0.017381729558
          -0.027019238099 0.027039723471 0.018838109449 -0.021584166214 0.031097749248 0.018996449187
          -0.028571214527 0.013641615398 0.011282159947 -0.02436020039 0.015011393465 0.013814729638
          -0.027591625229 0.025829713792 0.012649799697 -0.025717062876 0.024393932894 0.011309999973
          -0.018628925085 0.0084620844573 0.010700129904 -0.028844410554 0.0097256395966 0.015225870535
          -0.021025674418 0.024523394182 0.031465288252 -0.022746808827 0.022448843345 0.028693471104
          -0.022957315668 0.029348010197 0.029096279293 -0.02110888809 0.0057820668444 0.0059638498351
          -0.022131597623 0.028138002381 0.010118099861 -0.031454999 0.032468836755 -0.01456728112
          -0.025563115254 0.030028305948 -0.012420989573 -0.031454999 0.032468836755 0.01456728112
          -0.025563115254 0.030028305948 0.012420989573 -0.031742952764 0.006676140707 -0.008663459681
          -0.031091570854 0.011007943191 -0.0091558797285 -0.029491793364 0.0033785745036 -0.015010980889
          -0.028220536187 0.015628991649 -0.0078882900998 -0.029927946627 0.030985793099 -0.019267018884
          -0.03182445839 0.028839470819 -0.014965739101 -0.02321719937 -0.001537994598 -0.01188942045
          -0.023783780634 0.0036809321027 -0.004737149924 -0.026147784665 0.006910551805 0
          -0.023783780634 0.0036809321027 0.004737149924 -0.032916229218 0.015841880813 -0.003718379885
          -0.036155816168 0.012326829135 -0.0036192000844 -0.045460514724 0.014223596081 0
          -0.032916229218 0.015841880813 0.003718379885 -0.036155816168 0.012326829135 0.0036192000844
          -0.028220536187 0.015628991649 0.0078882900998 -0.029927946627 0.030985793099 0.019267018884
          -0.03182445839 0.028839470819 0.014965739101 -0.031091570854 0.011007943191 0.0091558797285
          -0.031742952764 0.006676140707 0.008663459681 -0.029491793364 0.0033785745036 0.015010980889
          -0.02321719937 -0.001537994598 0.01188942045 -0.036788348109 0.0082135461271 -0.0037784099113
          -0.028509182855 0.0038992566988 -0.0068086204119 -0.033070538193 0.005348067265 -0.0044326498173
          -0.033455926925 0.00061791506596 0 -0.028509182855 0.0038992566988 0.0068086204119
          -0.033070538193 0.005348067265 0.0044326498173 -0.047798030078 0.0098524019122 0
          -0.036788348109 0.0082135461271 0.0037784099113 -0.040378514677 0.0054425415583 -0.0041177100502
          -0.037674490362 0.0031311612111 -0.0041316300631 -0.039266519248 -0.00042837648652 -0.0032076898497
          -0.040990751237 -0.00097314483719 0 -0.039266519248 -0.00042837648652 0.0032076898497
          -0.037674490362 0.0031311612111 0.0041316300631 -0.046543210745 0.0052430639043 -0.0041690403596
          -0.047495353967 0.0039106192999 0 -0.046543210745 0.0052430639043 0.0041690403596
          -0.040378514677 0.0054425415583 0.0041177100502 -0.045292444527 0.0017941945698 -0.0048580802977
          -0.044576577842 -1.9813604013e-005 0 -0.045292444527 0.0017941945698 0.0048580802977
        </DataArray>
      </Points>
      <Verts>
        <DataArray type="Int32" Name="connectivity" format="ascii" RangeMin="1e+299" RangeMax="-1e+299">
        </DataArray>
        <DataArray type="Int32" Name="offsets" format="ascii" RangeMin="1e+299" RangeMax="-1e+299">
        </DataArray>
      </Verts>
      <Lines>
        <DataArray type="Int32" Name="connectivity" format="ascii" RangeMin="1e+299" RangeMax="-1e+299">
        </DataArray>
        <DataArray type="Int32" Name="offsets" format="ascii" RangeMin="1e+299" RangeMax="-1e+299">
        </DataArray>
      </Lines>
      <Strips>
        <DataArray type="Int32" Name="connectivity" format="ascii" RangeMin="1e+299" RangeMax="-1e+299">
        </DataArray>
        <DataArray type="Int32" Name="offsets" format="ascii" RangeMin="1e+299" RangeMax="-1e+299">
        </DataArray>
      </Strips>
      <Polys>
        <DataArray type="Int32" Name="connectivity" format="ascii" RangeMin="0" RangeMax="211">
          0 1 2 0 3 1
          0 4 3 0 5 6
          6 7 0 0 7 8
          8 4 0 2 9 0
          9 10 0 10 11 0
          12 5 0 0 13 12
          14 13 0 0 11 14
          2 1 15 15 1 3
          16 2 15 17 9 2
          17 2 16 18 15 3
          18 3 4 19 18 4
          19 4 8 20 6 5
          21 20 5 5 12 22
          5 22 21 6 20 7
          7 23 24 8 7 24
          25 23 7 20 25 7
          24 19 8 10 9 17
          10 17 26 11 10 26
          11 26 27 14 11 27
          13 22 12 28 29 13
          28 13 14 13 29 30
          13 30 22 14 27 28
          15 31 32 16 15 32
          31 15 18 32 17 16
          32 33 17 26 17 33
          34 31 18 34 18 19
          35 34 19 35 19 24
          20 21 36 25 20 36
          37 36 21 21 38 37
          38 21 22 38 22 30
          23 39 40 24 23 40
          41 23 25 41 39 23
          40 35 24 41 25 36
          26 33 42 27 26 42
          27 42 43 28 27 43
          28 43 44 44 29 28
          44 45 29 30 29 46
          29 45 46 38 30 46
          31 47 48 32 31 48
          47 31 34 48 33 32
          48 49 33 42 33 49
          50 47 34 50 34 35
          51 50 35 51 35 40
          52 36 37 52 53 36
          53 41 36 54 52 37
          37 38 55 37 55 54
          38 56 55 38 46 56
          39 57 58 40 39 58
          59 39 60 39 59 61
          57 39 61 41 60 39
          58 51 40 41 62 60
          62 41 53 42 49 63
          43 42 63 43 63 64
          44 43 64 44 64 65
          65 45 44 65 66 45
          67 45 68 69 68 45
          69 45 66 45 67 46
          67 70 46 56 46 70
          47 71 72 48 47 72
          71 47 50 72 49 48
          72 73 49 63 49 73
          74 71 50 74 50 51
          75 74 51 75 51 58
          76 52 54 77 53 52
          76 77 52 53 77 62
          78 76 54 54 55 79
          54 79 78 55 56 80
          55 80 79 70 80 56
          57 81 82 58 57 82
          57 61 83 81 57 83
          82 75 58 61 59 60
          60 84 85 86 60 85
          86 61 60 87 84 60
          62 87 60 88 89 61
          86 88 61 61 89 83
          90 62 91 92 91 62
          93 92 62 62 90 87
          77 93 62 63 73 94
          64 63 94 64 94 95
          65 64 95 65 95 96
          96 66 65 96 97 66
          98 69 66 98 66 97
          99 100 67 99 67 101
          67 68 69 67 69 101
          67 100 102 67 102 70
          69 103 104 69 104 101
          98 103 69 91 70 105
          70 91 92 70 92 106
          102 105 70 70 106 80
          71 107 108 72 71 108
          107 71 74 108 73 72
          108 109 73 94 73 109
          110 107 74 74 75 111
          110 74 111 75 82 112
          111 75 112 76 113 114
          114 115 76 115 93 76
          77 76 93 116 76 78
          116 117 76 76 117 113
          78 79 116 118 119 79
          79 120 118 79 106 120
          106 79 80 79 121 116
          119 121 79 82 81 112
          81 83 117 81 117 112
          83 113 117 89 122 83
          123 83 122 113 83 123
          84 124 125 85 84 126
          84 127 126 87 124 84
          125 128 84 128 127 84
          85 126 129 122 86 85
          122 85 130 130 85 129
          122 88 86 131 87 90
          87 131 132 124 87 132
          88 133 134 89 88 134
          88 135 133 122 135 88
          89 134 122 136 90 137
          137 90 91 136 131 90
          91 105 137 92 138 139
          140 138 92 141 140 92
          92 93 141 139 142 92
          92 142 143 92 143 144
          144 106 92 93 145 141
          115 145 93 94 109 146
          147 95 94 147 94 146
          148 96 95 148 95 147
          148 97 96 121 98 97
          148 121 97 121 119 98
          98 149 103 149 98 150
          150 98 119 151 152 99
          152 100 99 99 101 149
          153 99 149 151 99 153
          154 155 100 152 156 100
          100 155 102 100 157 154
          100 156 157 101 104 149
          105 102 158 159 158 102
          159 102 155 149 160 103
          160 104 103 160 161 104
          161 162 104 104 162 149
          137 105 163 105 158 163
          144 164 106 106 164 120
          116 107 110 116 108 107
          109 108 116 146 109 116
          116 110 111 116 111 112
          116 112 117 123 114 113
          114 123 129 114 129 165
          166 114 165 166 145 114
          115 114 145 147 146 116
          148 147 116 121 148 116
          119 118 150 151 150 118
          167 151 118 167 118 168
          118 164 168 164 118 120
          134 135 122 130 123 122
          123 130 129 125 124 132
          169 170 125 171 169 125
          132 171 125 172 125 170
          125 172 128 126 173 129
          174 173 126 174 126 127
          165 174 127 166 165 127
          127 128 145 166 127 145
          145 128 141 140 128 172
          141 128 140 165 129 173
          131 175 132 136 175 131
          175 171 132 133 135 134
          176 136 137 176 175 136
          177 176 137 137 163 178
          137 178 177 139 138 179
          138 140 179 180 181 139
          179 180 139 182 142 139
          139 181 183 139 183 182
          140 172 179 182 143 142
          182 184 143 184 157 143
          143 157 144 144 157 164
          149 162 160 149 150 153
          151 153 150 151 185 152
          185 151 167 152 185 186
          156 152 186 159 155 154
          154 187 188 154 188 189
          154 189 159 187 154 184
          157 184 154 156 186 167
          156 167 168 164 157 156
          164 156 168 159 190 158
          158 190 163 159 189 190
          160 162 161 163 190 178
          174 165 173 185 167 186
          170 169 191 169 192 193
          191 169 193 169 171 192
          172 170 180 180 170 191
          171 175 192 179 172 180
          192 175 176 193 192 176
          194 193 176 194 176 177
          177 178 194 178 190 195
          178 195 196 178 196 194
          180 191 181 191 197 181
          181 197 198 181 198 183
          183 184 182 183 187 184
          198 187 183 198 188 187
          196 195 188 196 188 198
          195 189 188 195 190 189
          191 199 197 191 193 200
          199 191 200 193 194 201
          200 193 201 202 201 194
          194 203 202 203 194 196
          204 196 198 203 196 204
          199 205 197 197 205 206
          197 207 208 197 208 198
          206 207 197 204 198 208
          199 200 201 209 199 201
          199 209 205 209 201 202
          210 209 202 202 203 211
          202 211 210 203 204 208
          203 208 211 205 209 210
          206 205 210 210 207 206
          210 211 207 207 211 208
        </DataArray>
        <DataArray type="Int32" Name="offsets" format="ascii" RangeMin="3" RangeMax="1272">
          3 6 9 12 15 18
          21 24 27 30 33 36
          39 42 45 48 51 54
          57 60 63 66 69 72
          75 78 81 84 87 90
          93 96 99 102 105 108
          111 114 117 120 123 126
          129 132 135 138 141 144
          147 150 153 156 159 162
          165 168 171 174 177 180
          183 186 189 192 195 198
          201 204 207 210 213 216
          219 222 225 228 231 234
          237 240 243 246 249 252
          255 258 261 264 267 270
          273 276 279 282 285 288
          291 294 297 300 303 306
          309 312 315 318 321 324
          327 330 333 336 339 342
          345 348 351 354 357 360
          363 366 369 372 375 378
          381 384 387 390 393 396
          399 402 405 408 411 414
          417 420 423 426 429 432
          435 438 441 444 447 450
          453 456 459 462 465 468
          471 474 477 480 483 486
          489 492 495 498 501 504
          507 510 513 516 519 522
          525 528 531 534 537 540
          543 546 549 552 555 558
          561 564 567 570 573 576
          579 582 585 588 591 594
          597 600 603 606 609 612
          615 618 621 624 627 630