<?xml version="1.0"?>
<VTKFile type="PolyData" version="0.1" byte_order="LittleEndian" compressor="vtkZLibDataCompressor">
	<PolyData>
		<Piece NumberOfPoints="142" NumberOfVerts="0" NumberOfLines="0" NumberOfStrips="0" NumberOfPolys="216">
		<PointData Normals="Normals">
		<DataArray type="Float32" Name="Normals" NumberOfComponents="3" format="ascii">
			 0.020952  0.999780 -0.000001
			 0.987338 -0.158631 -0.000000
			 0.071182  0.957410  0.279820
			 0.024553  0.999177 -0.032283
			 0.066786  0.959559 -0.273470
			 0.578032 -0.815705 -0.022468
			 0.916175 -0.202348  0.345947
			 0.343372 -0.939199  0.000000
			 0.916175 -0.202347 -0.345947
			 0.526277 -0.847194 -0.072768
			 0.518411  0.852947  0.061088
			-0.607131  0.702714  0.370925
			-0.715266  0.504431 -0.483677
			-0.185506  0.606708 -0.772976
			 0.014885  0.466822 -0.884226
			 0.071006  0.520771 -0.850738
			 0.121825  0.992428 -0.015690
			 0.092967  0.534016  0.840347
			 0.041153  0.499199  0.865509
			-0.122513  0.417636  0.900317
			-0.754437  0.316626  0.574954
			 0.473754  0.802432 -0.362850
			-0.693698  0.648606 -0.313198
			 0.696782 -0.629469  0.343895
			-0.460585 -0.608900 -0.645834
			-0.793373  0.186588 -0.579434
			-0.300561 -0.953763 -0.000003
			-0.402969 -0.762586  0.506041
			 0.395486 -0.648770 -0.650145
			-0.876261  0.157636  0.455321
			 0.041304  0.936705  0.347674
			 0.409757  0.886176  0.216315
			-0.502097  0.858759 -0.102133
			-0.239978 -0.587468 -0.772846
			-0.019568 -0.594818 -0.803623
			-0.373749 -0.236466 -0.896881
			-0.366804  0.472339 -0.801468
			-0.956743  0.286788  0.048948
			-0.347404  0.410734  0.842975
			-0.373747 -0.236465  0.896882
			 0.007726 -0.615752  0.787903
			-0.086878 -0.762659  0.640939
			-0.559420  0.815159  0.150218
			 0.253378  0.821145 -0.511391
			 0.018925  0.563851 -0.825659
			-0.386668  0.537396  0.749462
			-0.701431 -0.576497 -0.419101
			 0.337889 -0.881360 -0.330205
			-0.726789  0.022121 -0.686504
			-0.000822 -1.000000 -0.000003
			-0.735921  0.565159 -0.372849
			-0.777549  0.608229 -0.159609
			-0.262745  0.326489 -0.907948
			-0.701717 -0.576276  0.418926
			 0.326429 -0.900203  0.288235
			-0.782645  0.005207  0.622447
			-0.735921  0.565159  0.372848
			-0.777551  0.608227  0.159609
			-0.508915  0.794917  0.330321
			-0.330632  0.912064  0.242531
			-0.283671  0.957955  0.043051
			 0.095956  0.938717 -0.331062
			 0.409512  0.804309  0.430566
			-0.677460  0.719545 -0.152653
			 0.461769  0.790464  0.402413
			 0.046025 -0.998940  0.000004
			-0.694372 -0.719616  0.000005
			-0.998031 -0.062341 -0.006851
			-0.998032 -0.062339  0.006849
			-0.704888  0.685978  0.180467
			 0.356134  0.869812 -0.341461
			 0.239395  0.903702 -0.354984
			-0.379104  0.920264  0.096921
			-0.066106  0.926171  0.371265
			-0.594683  0.775198 -0.213123
			-0.615641  0.702756 -0.356540
			-0.912392 -0.385380  0.137924
			 0.443861 -0.820188 -0.360942
			 0.256196 -0.707050 -0.659123
			 0.097949 -0.452356 -0.886442
			 0.156995 -0.510121 -0.845653
			 0.230775  0.769670 -0.595274
			-0.173808  0.546386 -0.819300
			 0.727713  0.623633  0.285510
			 0.669004  0.502121 -0.548004
			-0.310401 -0.459897 -0.831953
			-0.202455 -0.907963 -0.366901
			 0.371398  0.831547 -0.413029
			 0.557968  0.828808 -0.041808
			 0.013703 -0.931946 -0.362337
			 0.296986 -0.840194 -0.453732
			-0.575273  0.476660 -0.664723
			-0.910488 -0.406613 -0.075352
			 0.236019 -0.723878  0.648303
			 0.432666 -0.834523  0.341132
			 0.100548 -0.449902  0.887400
			 0.157317 -0.508245  0.846722
			 0.195398  0.763389  0.615676
			-0.210521  0.735579  0.643898
			 0.641823  0.668570  0.375603
			 0.674026  0.662615 -0.326544
			-0.310396 -0.459894  0.831956
			-0.096379 -0.929941  0.354853
			 0.354178  0.933466 -0.056554
			 0.248807  0.852691  0.459362
			 0.247597 -0.805070  0.539034
			 0.154585 -0.901424  0.404399
			-0.575273  0.476661  0.664722
			 0.429777  0.796027  0.426185
			 0.360653  0.899191  0.247760
			 0.462331  0.886014  0.035062
			-0.208110  0.880353  0.426227
			-0.995492 -0.082269  0.047205
			-0.160810  0.681911 -0.713539
			-0.171429  0.614002  0.770463
			 0.139151  0.978206  0.154111
			 0.185293  0.836878 -0.515075
			 0.367401  0.894489 -0.254769
			-0.235274  0.897484 -0.373054
			 0.764135 -0.629811 -0.139412
			 0.519897 -0.851911 -0.062894
			 0.920978  0.355524 -0.159382
			 0.749801  0.451572 -0.483612
			 0.790607  0.432686 -0.433270
			 0.700995  0.297199 -0.648289
			 0.864982  0.420822 -0.273339
			 0.780989  0.614319  0.112553
			 0.502905  0.117027 -0.856383
			 0.862194  0.296094 -0.411034
			 0.776790 -0.626973  0.059180
			 0.923385  0.335595  0.186377
			 0.753046  0.433147  0.495283
			 0.821351  0.415683  0.390627
			 0.630771  0.337386  0.698784
			 0.729205  0.650692  0.211804
			 0.708284  0.662612 -0.243473
			 0.578707  0.163374  0.799004
			 0.858518  0.451888  0.242372
			 0.713946  0.609486 -0.344686
			 0.124060  0.991291  0.044177
			 0.879627  0.475065  0.023856
			 0.742111  0.601318  0.296122
		</DataArray>
	</PointData>
	<Points>
		<DataArray type="Float32" NumberOfComponents="3" format="ascii">
			-0.019124  0.017730  0.000150
			-0.008018  0.017501  0.000150
			-0.007370  0.017514 -0.004180
			-0.020079  0.017853  0.000150
			-0.007370  0.017514  0.004480
			-0.014971  0.003282 -0.002122
			-0.008339  0.016887 -0.001485
			-0.014973  0.003281  0.000150
			-0.008339  0.016887  0.001786
			-0.014971  0.003282  0.002422
			-0.001771  0.018491 -0.012190
			-0.008318  0.017686 -0.004960
			-0.011626  0.012721 -0.011813
			-0.023770  0.013944 -0.005270
			-0.031020  0.016213 -0.003752
			-0.036434  0.017797 -0.003527
			-0.035992  0.019789  0.000150
			-0.036434  0.017797  0.003828
			-0.031020  0.016213  0.004053
			-0.023770  0.013944  0.005571
			-0.011626  0.012721  0.012113
			-0.001771  0.018491  0.012491
			-0.008318  0.017686  0.005260
			-0.008262  0.006851 -0.009838
			-0.024938  0.008989 -0.006679
			-0.015054  0.005871 -0.012267
			-0.024943  0.008984  0.000150
			-0.024938  0.008989  0.006979
			-0.008262  0.006851  0.010139
			-0.015054  0.005871  0.012567
			 0.001404  0.012994 -0.012269
			 0.000452  0.013915 -0.013732
			-0.004432  0.015682 -0.022884
			-0.030857  0.010161 -0.005751
			-0.037585  0.009559 -0.005593
			-0.041673  0.009977 -0.005446
			-0.043773  0.017948 -0.004316
			-0.042070  0.021923  0.000150
			-0.043773  0.017948  0.004616
			-0.041673  0.009977  0.005746
			-0.037585  0.009559  0.005893
			-0.030857  0.010161  0.006052
			-0.004432  0.015682  0.023185
			 0.000452  0.013915  0.014032
			 0.001404  0.012994  0.012570
			 0.003631  0.006479 -0.010931
			-0.000795  0.002104 -0.009825
			 0.003575  0.012493 -0.021423
			-0.012484  0.006181 -0.023082
			-0.030862  0.010157  0.000150
			-0.008443  0.011305 -0.024598
			-0.013592  0.006199 -0.017400
			 0.003631  0.006479  0.011231
			-0.000795  0.002104  0.010126
			 0.003575  0.012493  0.021724
			-0.012484  0.006181  0.023383
			-0.008443  0.011305  0.024898
			-0.013592  0.006199  0.017700
			 0.007456  0.015876 -0.009892
			 0.007801  0.017245 -0.010987
			 0.004644  0.013137 -0.013145
			 0.006081  0.013155 -0.016647
			 0.002998  0.016869 -0.018870
			-0.001724  0.016056 -0.025530
			 0.006679  0.023602 -0.026828
			-0.037589  0.009555  0.000150
			-0.041677  0.009973  0.000150
			-0.045535  0.013101 -0.004210
			-0.045535  0.013101  0.004511
			-0.001724  0.016056  0.025830
			 0.006679  0.023602  0.027129
			 0.002998  0.016869  0.019171
			 0.004644  0.013137  0.013446
			 0.006081  0.013155  0.016948
			 0.007801  0.017245  0.011288
			 0.007456  0.015876  0.010193
			 0.000201  0.000658 -0.004101
			 0.018003 -0.005942 -0.008543
			 0.015404 -0.003737 -0.015003
			 0.011963 -0.002333 -0.016757
			 0.010042  0.003737 -0.018399
			 0.005630  0.010374 -0.018276
			 0.004342  0.022074 -0.029154
			 0.003604  0.012157 -0.025087
			 0.005537  0.019437 -0.031712
			 0.001906  0.011688 -0.034068
			 0.004837  0.009043 -0.030447
			 0.008604  0.009388 -0.019549
			 0.008780  0.008311 -0.023495
			 0.007622  0.007431 -0.027731
			 0.009863  0.006202 -0.022693
			 0.000066  0.015022 -0.029666
			 0.000201  0.000658  0.004401
			 0.015404 -0.003737  0.015303
			 0.018003 -0.005942  0.008844
			 0.011963 -0.002333  0.017058
			 0.010042  0.003737  0.018699
			 0.005630  0.010374  0.018576
			 0.004342  0.022074  0.029454
			 0.005537  0.019437  0.032012
			 0.003604  0.012157  0.025388
			 0.001906  0.011688  0.034369
			 0.004837  0.009043  0.030748
			 0.008780  0.008311  0.023796
			 0.008604  0.009388  0.019850
			 0.009863  0.006202  0.022994
			 0.007622  0.007431  0.028032
			 0.000066  0.015022  0.029967
			 0.010650  0.019149 -0.011666
			 0.009632  0.014298 -0.005159
			 0.011759  0.017827 -0.014329
			 0.008609  0.014305 -0.002390
			 0.000000 -0.000008  0.000150
			 0.010648  0.017293 -0.015713
			 0.010648  0.017293  0.016013
			 0.011759  0.017827  0.014630
			 0.010650  0.019149  0.011966
			 0.009632  0.014298  0.005460
			 0.008609  0.014305  0.002691
			 0.019256 -0.006283 -0.002163
			 0.019276 -0.006135  0.000150
			 0.021797  0.007506 -0.007528
			 0.018944  0.009595 -0.011725
			 0.017057  0.011628 -0.013341
			 0.012728  0.010041 -0.017268
			 0.010185  0.007493 -0.023287
			 0.006315  0.010688 -0.025842
			 0.004421  0.012184 -0.033396
			 0.007719  0.008732 -0.026808
			 0.019256 -0.006283  0.002464
			 0.021797  0.007506  0.007829
			 0.018944  0.009595  0.012025
			 0.017057  0.011628  0.013641
			 0.012728  0.010041  0.017569
			 0.010185  0.007493  0.023587
			 0.006315  0.010688  0.026143
			 0.004421  0.012184  0.033696
			 0.007719  0.008732  0.027108
			 0.013551  0.016158 -0.013436
			 0.010954  0.012526  0.000150
			 0.022636  0.007139  0.000150
			 0.013551  0.016158  0.013736
		</DataArray>
	</Points>
			<Polys>
				<DataArray type="Int32" Name="connectivity" format="ascii">
					0 1 2 
					2 3 0 
					4 1 0 
					0 3 4 
					5 6 1 
					7 5 1 
					1 6 2 
					1 8 9 
					1 9 7 
					4 8 1 
					10 2 6 
					10 11 2 
					2 12 13 3 
					12 2 11 
					3 14 15 16 
					13 14 3 
					16 17 18 3 
					3 18 19 
					3 19 20 4 
					8 4 21 
					4 22 21 
					22 4 20 
					23 6 5 
					23 5 24 25 
					24 5 7 26 
					10 6 23 
					26 7 9 27 
					28 8 21 
					9 8 28 
					29 27 9 28 
					30 31 10 23 
					10 32 12 11 
					10 31 32 
					13 12 24 33 
					12 25 24 
					12 32 25 
					14 13 33 34 
					14 34 35 
					15 14 35 
					16 15 36 37 
					35 36 15 
					37 38 17 16 
					39 18 17 
					17 38 39 
					39 40 18 
					40 41 19 18 
					41 27 20 19 
					22 20 42 21 
					27 29 20 
					29 42 20 
					28 21 43 44 
					42 43 21 
					30 23 45 
					45 23 46 
					47 46 23 
					47 23 25 48 
					49 33 24 26 
					25 32 50 
					25 50 51 
					25 51 48 
					26 27 41 49 
					52 28 44 
					53 28 52 
					28 53 54 
					55 29 28 54 
					56 42 29 
					57 56 29 
					55 57 29 
					58 59 30 45 
					59 60 30 
					60 31 30 
					61 62 31 60 
					62 32 31 
					32 63 50 
					32 62 64 63 
					65 34 33 49 
					66 35 34 65 
					66 37 35 
					67 35 37 
					67 36 35 
					36 67 37 
					39 37 66 
					37 68 38 
					37 39 68 
					39 38 68 
					65 40 39 66 
					49 41 40 65 
					56 69 42 
					69 70 71 42 
					43 42 71 
					72 43 71 73 
					44 43 72 
					52 44 74 75 
					44 72 74 
					58 45 46 
					58 46 76 
					77 76 46 78 
					78 46 79 
					79 46 80 
					46 47 80 
					81 47 62 61 
					47 64 62 
					47 82 64 
					47 83 84 82 
					47 48 85 
					47 85 86 
					83 47 87 88 
					47 81 87 
					89 90 47 
					90 80 47 
					47 86 89 
					51 50 48 
					50 91 48 
					91 85 48 
					63 91 50 
					53 52 75 
					92 53 75 
					93 53 92 94 
					95 53 93 
					96 53 95 
					96 54 53 
					73 71 54 97 
					71 70 54 
					70 98 54 
					98 99 100 54 
					101 55 54 
					102 101 54 
					103 104 54 100 
					104 97 54 
					54 105 106 
					54 96 105 
					106 102 54 
					55 56 57 
					55 107 56 
					55 101 107 
					56 107 69 
					108 58 109 
					110 59 58 108 
					109 58 111 
					111 58 76 112 
					110 113 60 59 
					113 61 60 
					81 61 113 
					82 63 64 
					91 63 82 
					70 69 98 
					98 69 107 
					74 72 114 115 
					72 73 114 
					114 73 97 
					116 75 74 115 
					117 75 116 
					118 75 117 
					112 92 75 118 
					76 77 119 120 112 
					77 121 119 
					78 122 121 77 
					79 122 78 
					80 123 122 79 
					80 124 123 
					80 90 125 124 
					87 81 113 
					82 84 91 
					126 84 83 
					126 83 88 
					84 127 91 
					126 127 84 
					91 127 85 
					86 85 127 
					89 86 127 128 
					125 88 87 124 
					124 87 113 
					128 126 88 125 
					90 89 128 125 
					112 120 129 94 92 
					94 130 131 93 
					93 131 95 
					129 130 94 
					95 131 132 96 
					132 133 96 
					133 134 105 96 
					114 97 104 
					107 99 98 
					100 99 135 
					107 136 99 
					99 136 135 
					103 100 135 
					101 136 107 
					136 101 102 
					137 136 102 106 
					133 104 103 134 
					134 103 135 137 
					114 104 133 
					134 137 106 105 
					123 138 108 109 
					138 110 108 
					123 109 122 
					122 109 121 
					109 139 140 121 
					109 111 139 
					124 113 110 138 
					139 111 112 
					112 118 139 
					141 115 114 133 
					116 115 141 
					117 116 141 132 
					131 117 132 
					130 117 131 
					130 140 139 117 
					139 118 117 
					121 140 120 119 
					129 120 140 130 
					123 124 138 
					127 126 128 
					141 133 132 
					137 135 136 
				</DataArray>
				<DataArray type="Int32" Name="offsets" format="ascii">
					3 6 9 12 15 18 21 24 27 30 33 36 40 43 47 50 54 57 61 64 67 70 73 77 81 84 88 91 94 98 102 106 109 113 116 119 123 126 129 133 136 140 143 146 149 153 157 161 164 167 171 174 177 180 183 187 191 194 197 200 204 207 210 213 217 220 223 226 230 233 236 240 243 246 250 254 258 261 264 267 270 273 276 279 282 286 290 293 297 300 304 307 311 314 317 320 324 327 330 333 337 340 343 347 350 353 357 360 363 366 369 372 375 378 381 384 387 391 394 397 400 404 407 410 414 417 420 424 427 430 433 436 439 442 445 448 451 455 458 462 466 469 472 475 478 481 484 488 491 494 498 501 504 508 513 516 520 523 527 530 534 537 540 543 546 549 552 555 558 562 566 569 573 577 582 586 589 592 596 599 603 606 609 612 615 618 621 624 627 631 635 639 642 646 650 653 656 659 663 666 670 673 676 680 683 687 690 693 697 700 704 708 711 714 717 720 
				</DataArray>
			</Polys>
		</Piece>
	</PolyData>
</VTKFile>
