<VTKFile type="PolyData" version="0.1" byte_order="LittleEndian">
  <PolyData>
    <Piece NumberOfPoints="212" NumberOfVerts="0" NumberOfLines="0" NumberOfStrips="0" NumberOfPolys="424">
      <PointData Normals="Normals">
        <DataArray type="Float32" Name="Normals" NumberOfComponents="3" format="ascii" RangeMin="0.99999996815" RangeMax="1.0000000321">
          0.72677451372 -0.68687605858 0.00032899988582 0.5359224081 -0.8236694932 0.18535301089
          0.043883439153 -0.99903666973 1.4999995074e-005 0.96119344234 0.0029909126461 0.2758589983
          0.99206578732 -0.12571953237 0.000214000087 0.53602337837 -0.82365572453 -0.18512199819
          0.96127146482 0.0030663264915 -0.27558612823 0.53989821672 -0.69127082825 0.48026505113
          0.26218867302 -0.61994177103 0.73954671621 -0.3122844398 -0.94986093044 -0.015577006154
          -0.42762282491 -0.90395724773 -1.4000000192e-005 -0.35843890905 -0.9188927412 0.16479595006
          -0.1448456943 -0.68547493219 0.71354317665 0.53989720345 -0.69127362967 -0.48026224971
          0.26219284534 -0.61993843317 -0.73954796791 -0.3122819066 -0.94986218214 0.015551006421
          -0.35843521357 -0.91889488697 -0.16479201615 -0.14484250546 -0.68547159433 -0.71354705095
          0.95571374893 0.29429772496 0.00016100001812 0.89099788666 0.32005035877 0.32201009989
          0.66509473324 0.20391632617 0.71837812662 0.89108812809 0.32008883357 -0.32172203064
          0.66509723663 0.20390871167 -0.71837794781 0.23785279691 0.1757440418 0.95526963472
          -0.83534103632 -0.54860836267 -0.035130996257 -0.95825260878 -0.28592300415 -1.9000000975e-005
          -0.83534061909 -0.54860925674 0.03512699157 -0.25671321154 -0.061427306384 0.96453356743
          -0.70983684063 -0.47554984689 0.51959985495 -0.89362853765 -0.40493965149 -0.1935249716
          0.23784998059 0.17574627697 -0.95526993275 -0.70983719826 -0.47555008531 -0.51959913969
          -0.25671133399 -0.061432998627 -0.96453368664 -0.89362877607 -0.40493866801 0.19352595508
          0.9999910593 -0.0042153326795 0.00034799991408 0.92643451691 -0.094210237265 0.36447709799
          0.61949980259 0.25938716531 0.74090367556 0.92653977871 -0.094200313091 -0.36421197653
          0.6194973588 0.2593831718 -0.74090713263 0.22160089016 0.17909660935 0.95854967833
          -0.962456882 0.061649344862 -0.26434093714 -0.99044239521 0.13792698085 -7.40000105e-005
          -0.96246528625 0.06164233759 0.26431199908 -0.1534281373 0.015063360333 0.98804497719
          -0.070696383715 -0.54284852743 0.83684974909 -0.71666097641 -0.53848022223 -0.44321113825
          0.22159913182 0.17909605801 -0.95855015516 -0.07069825381 -0.54285246134 -0.83684700727
          -0.15343226492 0.015059841797 -0.98804438114 -0.71666067839 -0.53848326206 0.4432079792
          0.99631756544 -0.085739798844 0.00020399990899 0.93846333027 -0.14126238227 0.31516900659
          0.57452344894 -0.23754402995 0.7832596302 0.93851542473 -0.14125080407 -0.3150190115
          0.5745215416 -0.23754388094 -0.78326106071 0.20822028816 -0.29985466599 0.93098413944
          -0.96131962538 0.094660259783 -0.25865805149 -0.40475735068 0.15143619478 -0.90179741383
          -0.99919211864 0.040188260376 -0.00014799994824 -0.96134507656 0.094639755785 0.25857099891
          -0.40475431085 0.15142995119 0.90179979801 -0.013919174671 -0.30304926634 0.95287322998
          0.21294759214 0.089929439127 0.97291624546 -0.15938672423 -0.97696250677 0.1419159919
          -0.39195463061 -0.57737731934 0.7162450552 0.040948588401 -0.012202233076 0.99908673763
          0.69175308943 0.080432936549 -0.71764075756 0.20822197199 -0.29986259341 -0.93098121881
          0.21295003593 0.089928157628 -0.97291582823 -0.0139207514 -0.30304756761 -0.95287376642
          -0.39194139838 -0.57738417387 -0.71624678373 -0.15938673913 -0.97696262598 -0.14191500843
          0.040955618024 -0.012207232416 -0.99908638 0.69191527367 0.080494984984 0.71747738123
          0.85975438356 0.51070773602 0.00016899999173 0.7362908721 0.5975407362 0.31752297282
          0.60589033365 -0.22891280055 0.76190274954 0.73632633686 0.59756666422 -0.31739196181
          0.6058909297 -0.22892011702 -0.76190006733 0.16676311195 -0.33918437362 0.92582070827
          -0.49928557873 0.79287469387 -0.34937608242 -0.28189042211 -0.01074498985 -0.95938646793
          -0.70705163479 0.70716190338 -0.00022700004047 -0.49932929873 0.79290670156 0.34924089909
          -0.28188231587 -0.01074428577 0.95938885212 -0.16693748534 -0.15660133958 0.97345155478
          -0.3016769886 0.27361452579 0.91330504417 0.0064661810175 0.71410876513 0.70000487566
          -0.19285582006 -0.55958592892 0.80602121353 -0.3692317903 -0.55599224567 0.74467480183
          0.48349496722 -0.13061566651 0.86554729939 0.8294146657 -0.31331774592 0.46249678731
          0.14169228077 0.24166473746 0.95995908976 -0.5147690177 -0.52805548906 0.67540377378
          0.99734073877 -0.072879210114 -0.00022000001627 0.7312553525 -0.50381934643 -0.45981699228
          -0.52014136314 0.8540802002 5.0000006013e-005 -0.43911233544 0.5104238987 -0.73935633898
          0.16675749421 -0.33918955922 -0.92581987381 -0.30166870356 0.27362143993 -0.91330569983
          -0.1669331789 -0.15659247339 -0.97345370054 0.006465499755 0.71411371231 -0.69999986887
          -0.3692278862 -0.55599540472 -0.74467432499 -0.19320118427 -0.55886477232 -0.80643874407
          0.48347806931 -0.13063102961 -0.86555445194 0.82941406965 -0.31330868602 -0.46250402927
          -0.51477193832 -0.52806097269 -0.67539727688 0.1417004317 0.24166215956 -0.95995855331
          0.7312541008 -0.50387936831 0.45975321531 -0.43902611732 0.51045954227 0.73938292265
          0.042586382478 0.99909281731 -3.0000001061e-006 0.49908447266 0.70304918289 0.50659304857
          0.28486663103 0.49754655361 0.81932801008 0.49908047915 0.70305716991 -0.50658589602
          0.28486302495 0.49755054712 -0.81932687759 -0.23261921108 0.4203107059 0.87705600262
          -0.14148084819 0.98175984621 -0.1270069778 0.018974142149 0.93658858538 0.34991681576
          -0.63890397549 0.56327784061 -0.52394634485 -0.20110115409 0.90783423185 0.36796107888
          0.018974158913 0.936588943 -0.34991595149 -0.14130154252 0.98175525665 0.12724201381
          -0.63890397549 0.56327784061 0.52394634485 -0.20108380914 0.90784215927 -0.3679510355
          0.33579683304 0.59507000446 0.73015898466 0.38849496841 0.62962430716 0.67278885841
          0.55700242519 0.32607322931 0.76382231712 0.14690959454 -0.78584694862 0.60071802139
          0.57136321068 0.21329002082 0.79249697924 -0.84626716375 0.26438221335 0.46252992749
          -0.18794937432 0.1724204272 0.96692615747 -0.75153279305 -0.60866075754 -0.25442194939
          -0.92681097984 0.23448823392 -0.29332005978 0.91795277596 -0.25042039156 0.30765616894
          -0.091350905597 0.23475570977 0.96775245667 0.11565479636 -0.0028222145047 0.99328547716
          -0.84709221125 -0.45464912057 0.27518892288 -0.96888637543 0.14289867878 -0.20208695531
          0.062043078244 -0.99807345867 -0.00012000003335 -0.075998328626 -0.91893535852 -0.38701692224
          -0.88569873571 0.46426042914 0.00019500004419 -0.58853065968 0.72662705183 0.35446408391
          -0.80579382181 0.56452417374 0.17890997231 -0.91601222754 0.34012806416 -0.21268393099
          -0.58840507269 0.72681510448 -0.35428705812 -0.80571484566 0.56468784809 -0.17874898016
          -0.91600126028 0.34011948109 0.21274504066 -0.80846309662 0.27686944604 -0.51935601234
          -0.23261606693 0.42031702399 -0.87705379725 0.33578714728 0.59507596493 -0.73015862703
          0.3879968524 0.6298918128 -0.6728259325 -0.1879466325 0.17242777348 -0.96692538261
          -0.84626471996 0.26437783241 -0.46253696084 0.14790004492 -0.78367358446 -0.60330861807
          -0.75004577637 -0.6107494235 0.25380393863 -0.92681634426 0.23448216915 0.29330804944
          0.55501705408 0.32778400183 -0.76453495026 0.57044428587 0.21443839371 -0.79284900427
          0.91795009375 -0.25042307377 -0.30766201019 -0.091351307929 0.23476302624 -0.96775060892
          -0.84710228443 -0.45464730263 -0.2751608789 0.1156514138 -0.0028276271187 -0.99328583479
          -0.96887862682 0.14290758967 0.20211790502 -0.075877860188 -0.91896224022 0.3869767487
          -0.80846476555 0.27686873078 0.51935386658 -0.85468757153 0.42047637701 -0.30448111892
          -0.67812520266 0.12989366055 -0.72337669134 -0.85458266735 0.41922307014 0.30649706721
          -0.67757445574 0.12751428783 0.7243155241 -0.59216153622 -0.32193014026 0.73871892691
          -0.64760363102 -0.7517028451 0.12470897287 -0.89084124565 0.17989212275 0.41718187928
          -0.83365488052 -0.3965215385 0.38443496823 -0.67054563761 -0.61659538746 0.41252711415
          -0.84915179014 0.46414455771 0.25201404095 0.4734928906 -0.84379988909 0.25259891152
          0.28700944781 -0.90943706036 -0.30091494322 0.83684742451 -0.54743623734 -4.8999998398e-005
          0.28699880838 -0.90947377682 0.30081403255 -0.77328544855 0.37311586738 0.51265406609
          -0.92651975155 0.37623974681 -0.0021830000915 -0.82065951824 0.1286970675 0.55673605204
          -0.77334445715 0.37310373783 -0.51257389784 -0.82043868303 0.12905840576 -0.55697780848
          -0.8491537571 0.46414157748 -0.25201296806 -0.83365064859 -0.39652746916 -0.38443794847
          -0.89084106684 0.17988806963 -0.41718396544 -0.67054599524 -0.61659646034 -0.41252493858
          -0.59278035164 -0.32013380527 -0.73900324106 -0.64657694101 -0.7522238493 -0.12687593699
          0.47349584103 -0.84379911423 -0.25259596109 -0.69402509928 0.03624311462 0.71903800964
          0.14474178851 -0.91610020399 0.37391203642 -0.012476715259 -0.96226578951 -0.27182504535
          0.75799173117 -0.65226411819 -0.00011499997345 -0.012478267774 -0.9622669816 0.27182090282
          0.1480730772 -0.9130834341 -0.37993812561 -0.78690952063 0.61706161499 -0.0028979994822
          -0.69411015511 0.034245483577 -0.71905374527 -0.18738096952 0.16923388839 0.96759921312
          -0.057994753122 -0.062668509781 0.99634796381 0.63655126095 -0.60300147533 0.48082396388
          0.26500383019 -0.96424680948 -0.0010360000888 0.63332605362 -0.60256367922 -0.48560798168
          -0.066235356033 -0.063763007522 -0.99576461315 -0.82434862852 0.056258372962 0.56327998638
          -0.98803818226 -0.15420612693 -0.00099700002465 -0.19268634915 0.16765020788 -0.96683263779
          -0.82332104445 0.055528197438 -0.56485313177 -0.26569077373 -0.70281267166 0.65989601612
          -0.5517718792 -0.83399426937 -0.0011569993803 -0.26432931423 -0.7023344636 -0.66095107794
        </DataArray>
      </PointData>
      <CellData>
      </CellData>
      <Points>
        <DataArray type="Float32" Name="Points" NumberOfComponents="3" format="ascii" RangeMin="0.00055994600288" RangeMax="0.047572200558">
          0.0098610678688 0.00021769812156 0.00053940003272 0.0093293329701 0.0004311860539 0.0064858500846
          3.6608682422e-005 0.00019699316181 0.00052286998834 0.010097024962 0.0032415154856 0.007676880341
          0.010397046804 0.0013039616169 0.00054027000442 0.0093293329701 0.0004311860539 -0.0054444600828
          0.010097024962 0.0032415154856 -0.0066354898736 0.0063436492346 0.00081826618407 0.012675030157
          0.0015792927006 0.00097570492653 0.015685230494 -0.008712743409 -0.00039939320413 0.0041072699241
          -0.0088181579486 -0.00020014448091 0.00052286998834 -0.0089852204546 -0.00022268212342 0.011078579351
          -0.0059359315783 0.00072603131412 0.015766140074 0.0063436492346 0.00081826618407 -0.011633640155
          0.0015792927006 0.00097570492653 -0.01464383956 -0.008712743409 -0.00039939320413 -0.0030658801552
          -0.0089852204546 -0.00022268212342 -0.01003718935 -0.0059359315783 0.00072603131412 -0.014724750072
          0.0097357193008 0.0045313271694 0.00054027000442 0.0087738288566 0.0048690615222 0.0081814797595
          0.0063519328833 0.003856608877 0.013432799838 0.0087738288566 0.0048690615222 -0.0071400897577
          0.0063519328833 0.003856608877 -0.012391409837 0.00060923653655 0.0044289510697 0.016203749925
          -0.011584319174 0.0020025286358 0.0042125401087 -0.011553736404 0.0019137094496 0.00052286998834
          -0.011584319174 0.0020025286358 -0.0031711501069 -0.0070615401492 0.0044680191204 0.016315110028
          -0.011105313897 0.00021589866083 0.012378360145 -0.012315986678 0.0030157901347 0.0075368098915
          0.00060923653655 0.0044289510697 -0.015162359923 -0.011105313897 0.00021589866083 -0.011336970143
          -0.0070615401492 0.0044680191204 -0.015273720026 -0.012315986678 0.0030157901347 -0.0064954198897
          0.0095161823556 0.011280348524 0.00054201000603 0.0085550723597 0.010562949814 0.0079143894836
          0.0049002286978 0.0058760736138 0.013110899366 0.0085550723597 0.010562949814 -0.0068729994819
          0.0049002286978 0.0058760736138 -0.012069509365 0.00036340934457 0.0073715387844 0.014788260683
          -0.011714069173 0.0070397490636 0.0052539301105 -0.011361422017 0.0070470743813 0.00052373996004
          -0.011714069173 0.0070397490636 -0.0042125401087 -0.0071342182346 0.0070386920124 0.015469470061
          -0.010825791396 0.0060767251998 0.014656019397 -0.01306187734 0.0074801463634 0.0077603999525
          0.00036340934457 0.0073715387844 -0.01374686975 -0.010825791396 0.0060767251998 -0.013614630327
          -0.0071342182346 0.0070386920124 -0.01442808006 -0.01306187734 0.0074801463634 -0.0067190099508
          0.0097559997812 0.013940214179 0.00054287997773 0.0093287480995 0.013687256724 0.0086991293356
          0.004355926998 0.011101791635 0.01359461993 0.0093287480995 0.013687256724 -0.0076577402651
          0.004355926998 0.011101791635 -0.012553229928 0.00084205693565 0.01134198904 0.014853510074
          -0.010640216991 0.013092229143 0.005411399994 -0.01206781622 0.013449016027 0.0080901300535
          -0.010124266148 0.01314103324 0.00052634999156 -0.010640216991 0.013092229143 -0.0043700099923
          -0.01206781622 0.013449016027 -0.007048739586 -0.0063979700208 0.011920470744 0.015577350743
          -0.0098344814032 0.012743026018 0.015869669616 -0.014483086765 0.0058783339337 0.013254450634
          -0.013241685927 0.0078019211069 0.016132408753 -0.012193190865 0.011934544891 0.019188720733
          -0.018209956586 0.0089123342186 0.0032990400214 0.00084205693565 0.01134198904 -0.013812121004
          -0.0098344814032 0.012743026018 -0.014828280546 -0.0063979700208 0.011920470744 -0.01453595981
          -0.013241685927 0.0078019211069 -0.015091020614 -0.014483086765 0.0058783339337 -0.012213060632
          -0.012193190865 0.011934544891 -0.018147328869 -0.018209956586 0.0089123342186 -0.0022576500196
          0.0094983791932 0.016935760155 0.00054375000764 0.0089095681906 0.016799269244 0.0088496403769
          0.0056176697835 0.013586276211 0.014359349385 0.0089095681906 0.016799269244 -0.0078082499094
          0.0056176697835 0.013586276211 -0.013317960314 0.0012506779749 0.013428769074 0.016368178651
          -0.011264977045 0.017995787784 0.0067564197816 -0.01174762845 0.016858858988 0.0086478004232
          -0.01004883647 0.017320495099 0.00052722002147 -0.011264977045 0.017995787784 -0.0057150297798
          -0.01174762845 0.016858858988 -0.0076064104214 -0.0049678618088 0.014741718769 0.017132909968
          -0.0084075229242 0.014822511002 0.015353760682 -0.012949778698 0.01586613059 0.015388560481
          -0.020621143281 0.011444254778 0.017753221095 -0.019181728363 0.0085786404088 0.013327529654
          -0.017111616209 0.0043356181122 0.018953820691 -0.01580490917 0.0041295052506 0.008369400166
          -0.016789831221 0.010597458109 0.018249118701 -0.017735829577 0.0058919256553 0.016637008637
          -0.018648881465 0.0051552061923 0.00052373996004 -0.020578756928 -0.002924624132 0.0043326001614
          -0.02435724251 0.0098633570597 0.00052460998995 -0.020024079829 0.012975742109 0.0062718302943
          0.0012506779749 0.013428769074 -0.015326790512 -0.0084075229242 0.014822511002 -0.014312369749
          -0.0049678618088 0.014741718769 -0.016091519967 -0.012949778698 0.01586613059 -0.014347169548
          -0.019181728363 0.0085786404088 -0.012286139652 -0.020621143281 0.011444254778 -0.01671182923
          -0.017111616209 0.0043356181122 -0.017911558971 -0.01580490917 0.0041295052506 -0.0073280096985
          -0.017735829577 0.0058919256553 -0.015595620498 -0.016789831221 0.010597458109 -0.017207730561
          -0.020578756928 -0.002924624132 -0.0032903398387 -0.020024079829 0.012975742109 -0.0052304402925
          -0.0014216131531 0.017579458654 0.00052808999317 0.0053286682814 0.016833290458 0.014550750144
          0.00034656509524 0.017198231071 0.017133779824 0.0053286682814 0.016833290458 -0.013509360142
          0.00034656509524 0.017198231071 -0.016092389822 -0.0060743484646 0.017214978114 0.017235569656
          -0.019554486498 0.019091574475 0.012443609536 -0.012802451849 0.017079018056 0.011030730791
          -0.019282998517 0.017284993082 0.0080196596682 -0.0098939742893 0.017602933571 0.013277069665
          -0.012802451849 0.017079018056 -0.0099893398583 -0.019554486498 0.019091574475 -0.011402219534
          -0.019282998517 0.017284993082 -0.0069782696664 -0.0098939742893 0.017602933571 -0.012235679664
          -0.018635202199 0.014286655001 0.016344690695 -0.018060773611 0.01635418646 0.014227979816
          -0.029198821634 0.019859826192 0.028241068125 -0.024416405708 0.012515025213 0.016237679869
          -0.020765475929 0.015366746113 0.016373401508 -0.026623109356 0.0012868905906 0.0099414903671
          -0.023969136178 0.00267553702 0.012052980252 -0.029262995347 0.013338839635 0.019394909963
          -0.023091558367 0.010719669983 0.0099693303928 -0.016100646928 0.0027597374283 0.0094612501562
          -0.026351163164 -0.0014028676087 0.013223130256 -0.019533043727 0.010862898082 0.020129188895
          -0.020590450615 0.0094203939661 0.01840224117 -0.021601682529 0.014147634618 0.018654540181
          -0.022674785927 0.00051448738668 0.00052286998834 -0.020343659446 -0.0036073932424 0.0055149300024
          -0.031219663098 0.0011119906558 0.00052373996004 -0.024977618828 0.0075150514022 0.0042151496746
          -0.022186445072 0.0067655956373 0.0067059597932 -0.022329235449 0.0096387639642 0.0082728303969
          -0.024977618828 0.0075150514022 -0.0031737601385 -0.022186445072 0.0067655956373 -0.0056645697914
          -0.022329235449 0.0096387639642 -0.0072314399295 -0.020813656971 0.013334133662 0.0089792693034
          -0.0060743484646 0.017214978114 -0.016194179654 -0.018635202199 0.014286655001 -0.015303299762
          -0.018060773611 0.01635418646 -0.013186589815 -0.023969136178 0.00267553702 -0.011011589319
          -0.026623109356 0.0012868905906 -0.0089001003653 -0.024416405708 0.012515025213 -0.015196289867
          -0.029262995347 0.013338839635 -0.018353519961 -0.023091558367 0.010719669983 -0.008927940391
          -0.029198821634 0.019859826192 -0.027128340676 -0.020765475929 0.015366746113 -0.015332009643
          -0.016100646928 0.0027597374283 -0.0084198601544 -0.026351163164 -0.0014028676087 -0.012181740254
          -0.020590450615 0.0094203939661 -0.017360849306 -0.019533043727 0.010862898082 -0.019087800756
          -0.021601682529 0.014147634618 -0.017613150179 -0.020343659446 -0.0036073932424 -0.0044735400006
          -0.020813656971 0.013334133662 -0.0079378793016 -0.033033225685 0.017840242013 0.023760568351
          -0.023668929935 0.014585059136 0.010895879939 -0.033033225685 0.017840242013 -0.022648708895
          -0.023668929935 0.014585059136 -0.0098544899374 -0.031687870622 0.016840472817 0.031231259927
          -0.032868593931 0.015347249806 0.024392191321 -0.028221936896 -0.00054997490952 0.0081675602123
          -0.028185693547 -0.0035279123113 0.0077569200657 -0.026062749326 -0.0057625044137 0.013042170554
          -0.026598360389 0.0026553547941 0.0071157296188 -0.02108819969 -0.0050820210017 0.010446960106
          -0.022159591317 -0.0015081808669 0.0044926800765 -0.023935575038 -0.0032928590663 0.00052200001664
          -0.022159591317 -0.0015081808669 -0.0034512900747 -0.030208678916 0.0027427573223 0.0036400801037
          -0.035677406937 -0.0069430046715 0.00050894997548 -0.029819607735 -0.00021767568251 0.0035556901712
          -0.030208678916 0.0027427573223 -0.002598689869 -0.029819607735 -0.00021767568251 -0.0025142999366
          -0.026598360389 0.0026553547941 -0.0060743400827 -0.028185693547 -0.0035279123113 -0.006715530064
          -0.028221936896 -0.00054997490952 -0.0071270400658 -0.026062749326 -0.0057625044137 -0.012000780553
          -0.031687870622 0.016840472817 -0.030119398609 -0.032868593931 0.015347249806 -0.023280330002
          -0.02108819969 -0.0050820210017 -0.0094055701047 -0.029795294628 -0.0030460630078 0.0036870602053
          -0.029033591971 -0.0044538509101 0.0042325500399 -0.025372266769 -0.0053895018063 0.0062135397457
          -0.02874295786 -0.0077002723701 0.00052026001504 -0.025372266769 -0.0053895018063 -0.0051721497439
          -0.029033591971 -0.0044538509101 -0.0031911600381 -0.039056558162 -0.013750620186 0.00054027000442
          -0.029795294628 -0.0030460630078 -0.0026456702035 -0.034678988159 -0.01430527959 0.0029536499642
          -0.030683195218 -0.0093179075047 0.0039785099216 -0.034826934338 -0.0194739867 0.0024246899411
          -0.035268399864 -0.019680304453 0.00055331998738 -0.034826934338 -0.0194739867 -0.0013128300197
          -0.030683195218 -0.0093179075047 -0.0029371201526 -0.040479842573 -0.016148101538 0.0029806199018
          -0.040970835835 -0.017052358016 0.00054461997934 -0.034678988159 -0.01430527959 -0.0018409200711
          -0.040479842573 -0.016148101538 -0.0018678900087 -0.039158448577 -0.018513290212 0.0033790799789
          -0.037728048861 -0.019599735737 0.00053940003272 -0.039158448577 -0.018513290212 -0.0022672200575
        </DataArray>
      </Points>
      <Verts>
        <DataArray type="Int32" Name="connectivity" format="ascii" RangeMin="1e+299" RangeMax="-1e+299">
        </DataArray>
        <DataArray type="Int32" Name="offsets" format="ascii" RangeMin="1e+299" RangeMax="-1e+299">
        </DataArray>
      </Verts>
      <Lines>
        <DataArray type="Int32" Name="connectivity" format="ascii" RangeMin="1e+299" RangeMax="-1e+299">
        </DataArray>
        <DataArray type="Int32" Name="offsets" format="ascii" RangeMin="1e+299" RangeMax="-1e+299">
        </DataArray>
      </Lines>
      <Strips>
        <DataArray type="Int32" Name="connectivity" format="ascii" RangeMin="1e+299" RangeMax="-1e+299">
        </DataArray>
        <DataArray type="Int32" Name="offsets" format="ascii" RangeMin="1e+299" RangeMax="-1e+299">
        </DataArray>
      </Strips>
      <Polys>
        <DataArray type="Int32" Name="connectivity" format="ascii" RangeMin="0" RangeMax="211">
          0 1 2 3 1 0
          3 0 4 2 5 0
          0 5 6 4 0 6
          1 7 2 7 1 3
          7 8 2 9 10 2
          2 11 9 12 11 2
          2 8 12 2 13 5
          2 14 13 2 10 15
          15 16 2 2 16 17
          17 14 2 18 19 3
          18 3 4 20 3 19
          7 3 20 4 6 18
          6 5 13 6 21 18
          21 6 22 22 6 13
          8 7 20 8 20 23
          12 8 23 10 9 24
          11 24 9 10 24 25
          26 15 10 25 26 10
          27 28 11 27 11 12
          11 28 29 11 29 24
          12 23 27 22 13 14
          30 22 14 30 14 17
          15 26 16 16 31 32
          17 16 32 33 31 16
          26 33 16 32 30 17
          34 19 18 18 21 34
          34 35 19 36 19 35
          20 19 36 23 20 36
          21 37 34 37 21 38
          38 21 22 38 22 30
          23 36 39 27 23 39
          40 25 24 40 24 29
          25 40 41 41 42 25
          26 25 42 33 26 42
          27 39 43 43 28 27
          43 44 28 29 28 45
          28 44 45 40 29 45
          46 38 30 46 30 32
          31 47 48 32 31 48
          49 31 33 49 47 31
          48 46 32 49 33 42
          50 35 34 34 37 50
          50 51 35 52 35 51
          36 35 52 39 36 52
          37 53 50 53 37 54
          54 37 38 54 38 46
          39 52 55 43 39 55
          41 40 56 40 57 56
          40 45 57 41 56 58
          59 42 41 58 59 41
          59 60 42 60 49 42
          43 55 61 61 44 43
          61 62 44 63 44 64
          65 64 44 65 44 62
          44 63 45 57 45 66
          66 45 63 67 54 46
          67 46 48 47 68 69
          48 47 69 70 47 71
          47 70 72 68 47 72
          49 71 47 69 67 48
          73 49 60 71 49 73
          74 51 50 50 53 74
          74 75 51 76 51 75
          52 51 76 55 52 76
          53 77 74 77 53 78
          78 53 54 78 54 67
          55 76 79 61 55 79
          58 56 80 56 57 81
          56 81 80 66 81 57
          58 80 82 83 59 58
          82 83 58 84 60 59
          83 84 59 60 84 73
          61 79 85 85 62 61
          85 86 62 87 65 62
          87 62 86 88 89 63
          88 63 90 63 64 65
          63 65 90 63 89 91
          63 91 66 65 92 93
          65 93 90 87 92 65
          94 66 95 66 94 96
          66 96 97 91 95 66
          66 97 81 98 78 67
          98 67 69 68 99 100
          69 68 100 68 72 101
          99 68 101 100 98 69
          72 70 71 71 102 103
          104 71 103 104 72 71
          105 102 71 73 105 71
          106 107 72 104 106 72
          72 107 101 108 73 94
          96 94 73 109 96 73
          73 108 105 84 109 73
          75 74 110 110 74 77
          76 75 111 111 75 110
          112 79 76 112 76 111
          113 77 78 110 77 113
          78 98 114 113 78 114
          115 85 79 115 79 112
          116 117 80 80 118 116
          80 97 118 97 80 81
          82 80 110 80 119 110
          117 119 80 110 83 82
          83 120 121 121 122 83
          122 109 83 84 83 109
          110 123 83 83 123 120
          115 86 85 119 87 86
          115 119 86 119 117 87
          87 124 92 124 87 125
          125 87 117 126 127 88
          127 89 88 88 90 124
          128 88 124 126 88 128
          129 130 89 127 131 89
          89 130 91 89 132 129
          89 131 132 90 93 124
          95 91 133 134 133 91
          134 91 130 124 135 92
          135 93 92 135 136 93
          136 137 93 93 137 124
          94 95 138 138 108 94
          138 95 139 95 133 139
          140 141 96 96 141 142
          96 142 143 143 97 96
          96 144 140 145 144 96
          146 145 96 96 109 146
          143 147 97 97 147 118
          98 100 148 114 98 148
          100 99 148 99 101 123
          99 123 148 101 120 123
          107 149 101 150 101 149
          120 101 150 102 151 152
          103 102 153 102 154 153
          105 151 102 152 155 102
          155 154 102 103 153 156
          149 104 103 149 103 157
          157 103 156 149 106 104
          158 105 108 105 158 159
          151 105 159 106 160 161
          107 106 161 106 162 160
          149 162 106 107 161 149
          163 108 138 163 158 108
          109 164 146 122 164 109
          112 111 110 115 112 110
          119 115 110 110 113 114
          110 114 148 110 148 123
          117 116 125 126 125 116
          165 126 116 165 116 166
          116 147 166 147 116 118
          150 121 120 121 150 156
          121 156 167 168 121 167
          168 164 121 122 121 164
          124 137 135 124 125 128
          126 128 125 126 169 127
          169 126 165 127 169 170
          131 127 170 134 130 129
          129 171 172 129 172 173
          129 173 134 171 129 174
          132 174 129 131 170 165
          131 165 166 147 132 131
          147 131 166 143 132 147
          174 132 142 142 132 143
          134 175 133 133 175 139
          134 173 175 135 137 136
          138 139 176 138 176 177
          178 163 138 177 178 138
          139 175 176 179 141 140
          140 180 181 140 181 179
          140 144 182 183 180 140
          182 183 140 179 142 141
          179 174 142 144 145 182
          145 184 182 145 155 184
          146 155 145 164 155 146
          161 162 149 157 150 149
          150 157 156 152 151 159
          185 186 152 187 185 152
          159 187 152 184 152 186
          152 184 155 153 188 156
          189 188 153 189 153 154
          167 189 154 168 167 154
          154 155 164 168 154 164
          167 156 188 158 190 159
          163 190 158 190 187 159
          160 162 161 178 190 163
          169 165 170 189 167 188
          181 171 174 191 172 171
          191 171 181 192 193 172
          192 172 191 193 173 172
          193 175 173 181 174 179
          176 175 193 176 193 192
          176 192 194 177 176 194
          194 178 177 195 190 178
          196 195 178 194 196 178
          180 197 191 180 191 181
          198 197 180 183 198 180
          182 184 183 184 186 183
          183 186 198 186 185 198
          185 195 196 198 185 196
          185 187 195 187 190 195
          197 199 191 200 192 191
          200 191 199 201 194 192
          201 192 200 194 201 202
          202 203 194 196 194 203
          198 196 204 204 196 203
          197 205 199 206 205 197
          207 208 197 198 207 197
          197 208 206 207 198 204
          201 200 199 201 199 209
          205 209 199 202 201 209
          202 209 210 211 203 202
          210 211 202 207 204 203
          211 207 203 210 209 205
          210 205 206 206 208 210
          207 211 208 208 211 210
        </DataArray>
        <DataArray type="Int32" Name="offsets" format="ascii" RangeMin="3" RangeMax="1272">
          3 6 9 12 15 18
          21 24 27 30 33 36
          39 42 45 48 51 54
          57 60 63 66 69 72
          75 78 81 84 87 90
          93 96 99 102 105 108
          111 114 117 120 123 126