<?xml version="1.0"?>
<VTKFile type="PolyData" version="0.1" byte_order="LittleEndian" compressor="vtkZLibDataCompressor">
	<PolyData>
		<Piece NumberOfPoints="142" NumberOfVerts="0" NumberOfLines="0" NumberOfStrips="0" NumberOfPolys="158">
		<PointData Normals="Normals">
		<DataArray type="Float32" Name="Normals" NumberOfComponents="3" format="ascii">
			 0.026104  0.982554 -0.184135
			-0.014960  0.979010  0.203264
			 0.365907  0.927305  0.078848
			 0.521506  0.852955  0.022333
			 0.543565  0.795953 -0.266448
			 0.272825  0.879168 -0.390679
			-0.031614  0.990925 -0.130644
			-0.288741  0.935561 -0.203359
			-0.508221  0.831637 -0.223811
			-0.612523  0.770857  0.174916
			-0.450041  0.837202  0.310735
			 0.049215  0.452881  0.890212
			 0.675838  0.510886  0.531261
			-0.560299  0.053002  0.826593
			 0.937141  0.313706  0.152828
			 0.943921  0.189193 -0.270591
			 0.723004  0.532571 -0.440038
			-0.037095  0.992768 -0.114173
			-0.615503  0.772240 -0.157486
			-0.907647  0.133050 -0.398088
			-0.910045 -0.198379  0.363956
			 0.012574 -0.207697  0.978112
			 0.628821 -0.009172  0.777496
			-0.444284 -0.575854  0.686298
			 0.939477  0.185358  0.288142
			-0.583723 -0.789956  0.187716
			 0.935949  0.305374 -0.175346
			 0.739502  0.407353 -0.535910
			 0.004335  0.596621 -0.802511
			-0.744439  0.144751 -0.651811
			-0.729089 -0.545060 -0.413931
			-0.153481 -0.500705  0.851903
			 0.417362 -0.248889  0.873993
			-0.441880 -0.633114  0.635538
			 0.937654  0.155695  0.310748
			-0.652539 -0.733596  0.189814
			 0.915407  0.298178 -0.270408
			-0.847523 -0.496855 -0.186655
			 0.646465  0.337415 -0.684276
			-0.101517  0.207897 -0.972868
			-0.770644 -0.105344 -0.628498
			-0.192885 -0.344881  0.918615
			 0.214861 -0.271632  0.938110
			-0.415833 -0.266469  0.869527
			 0.890760 -0.059736  0.450532
			-0.888528 -0.246416  0.387036
			 0.933568 -0.081727 -0.348958
			-0.932095 -0.246601 -0.265306
			 0.594710 -0.063748 -0.801409
			-0.548356 -0.268001 -0.792137
			 0.137235 -0.110776 -0.984325
			-0.150209 -0.050627  0.987357
			 0.105107 -0.084581  0.990858
			-0.301151 -0.030609  0.953085
			 0.799145 -0.102859  0.592273
			-0.887087 -0.024943  0.460928
			 0.920782 -0.093179 -0.378785
			-0.861820 -0.116328 -0.493695
			 0.272292 -0.243645 -0.930857
			 0.252230 -0.359319 -0.898482
			 0.379109 -0.354815 -0.854624
			-0.187121 -0.009864  0.982287
			 0.207089 -0.032410  0.977785
			-0.430750 -0.021867  0.902207
			 0.894351 -0.110492  0.433506
			-0.921601 -0.026930  0.387203
			 0.828105 -0.143275 -0.541954
			-0.808043 -0.080738 -0.583566
			 0.079818 -0.110277 -0.990691
			 0.199139 -0.163063 -0.966309
			 0.229113 -0.163328 -0.959600
			-0.151046  0.032579  0.987990
			 0.390661  0.009946  0.920481
			-0.506645  0.017868  0.861969
			 0.940846 -0.063695  0.332794
			-0.935863  0.014696  0.352059
			 0.861807 -0.094471 -0.498361
			-0.876999 -0.001908 -0.480489
			 0.229387 -0.061858 -0.971368
			-0.142571 -0.039059 -0.989014
			 0.105145 -0.051551 -0.993120
			-0.178578  0.181105  0.967115
			 0.462914  0.174273  0.869103
			-0.582024  0.090835  0.808082
			 0.964331  0.020173  0.263931
			-0.955866  0.049836  0.289547
			 0.911553 -0.021317 -0.410630
			-0.915677  0.037598 -0.400152
			 0.421766 -0.012026 -0.906625
			-0.378921  0.010928 -0.925365
			 0.059631 -0.002644 -0.998217
			-0.108962  0.258460  0.959857
			 0.583372  0.220021  0.781836
			-0.627343  0.210026  0.749886
			 0.968665  0.089455  0.231701
			-0.950639  0.182353  0.251065
			 0.933407  0.065280 -0.352831
			-0.902519  0.147905 -0.404455
			 0.513819  0.057182 -0.855991
			-0.389121  0.073280 -0.918267
			 0.083805  0.048183 -0.995317
			 0.112415 -0.151640  0.982023
			 0.644387 -0.064219  0.761998
			-0.497161 -0.098025  0.862103
			 0.934285  0.176601  0.309714
			-0.927045 -0.086946  0.364729
			 0.912974  0.301395 -0.275025
			-0.936276  0.056938 -0.346621
			 0.593585  0.284311 -0.752877
			-0.542606  0.208467 -0.813708
			 0.041418  0.246142 -0.968348
			 0.277233 -0.946951  0.162560
			 0.313435 -0.932997  0.176847
			-0.046693 -0.853293  0.519337
			 0.906698 -0.369647  0.203128
			-0.409521 -0.853025  0.323482
			 0.947972  0.039131 -0.315938
			-0.647045 -0.669653 -0.364550
			 0.575583  0.055560 -0.815854
			-0.561209 -0.140268 -0.815701
			-0.073799  0.051354 -0.995950
			 0.077445 -0.915073 -0.395781
			-0.462263 -0.804806 -0.372289
			 0.213005 -0.820823  0.529980
			 0.091665 -0.995258  0.032549
			-0.361870 -0.841058  0.402083
			 0.559121 -0.800855 -0.214511
			-0.449493 -0.807215 -0.382571
			 0.351954 -0.715507 -0.603471
			-0.237039 -0.580417 -0.779057
			 0.049545 -0.559132 -0.827597
			 0.063460 -0.964583  0.256034
			-0.516029 -0.846722  0.129520
			 0.479420 -0.618750  0.622338
			-0.313761 -0.932870  0.176941
			 0.141917 -0.849843  0.507569
			-0.118470 -0.992615  0.026074
			 0.146867 -0.937235 -0.316260
			-0.043423 -0.999056 -0.001157
			 0.381323 -0.831336 -0.404318
			 0.239518 -0.954554 -0.177364
			 0.238699 -0.942708  0.233077
		</DataArray>
	</PointData>
	<Points>
		<DataArray type="Float32" NumberOfComponents="3" format="ascii">
			 0.006000 -0.031255 -0.003181
			 0.006000 -0.028520  0.008335
			 0.016460 -0.031255  0.009683
			 0.027593 -0.033990  0.003088
			 0.027593 -0.033990 -0.009449
			 0.016009 -0.034675 -0.015491
			 0.006000 -0.035359 -0.013324
			-0.007525 -0.034503 -0.019815
			-0.026973 -0.033649 -0.012754
			-0.026973 -0.033649  0.006393
			-0.007977 -0.031083  0.014009
			 0.006000 -0.038777  0.028074
			 0.023854 -0.040317  0.018777
			-0.015821 -0.046642  0.023657
			 0.030512 -0.041855  0.003937
			 0.030512 -0.041855 -0.010298
			 0.019165 -0.036555 -0.019372
			 0.006000 -0.031255 -0.020178
			-0.011132 -0.042881 -0.024252
			-0.031351 -0.054507 -0.014025
			-0.031351 -0.054507  0.007664
			 0.006000 -0.048694  0.029719
			 0.024485 -0.052627  0.019554
			-0.015280 -0.054165  0.022992
			 0.030804 -0.056559  0.004021
			-0.027850 -0.059636  0.006647
			 0.030804 -0.056559 -0.010382
			 0.024576 -0.045959 -0.026026
			 0.006000 -0.035359 -0.036354
			-0.015371 -0.047497 -0.029463
			-0.027850 -0.059636 -0.013008
			 0.006000 -0.068186  0.023687
			 0.024937 -0.068357  0.020108
			-0.011042 -0.065450  0.017780
			 0.038683 -0.068529  0.006308
			-0.020554 -0.062715  0.004528
			 0.038683 -0.068529 -0.012669
			-0.020554 -0.062715 -0.010890
			 0.027371 -0.062202 -0.029463
			 0.006000 -0.055875 -0.037450
			-0.013477 -0.059294 -0.027134
			 0.006000 -0.079129  0.013818
			 0.022682 -0.080667  0.017336
			-0.005362 -0.079642  0.010793
			 0.039000 -0.082205  0.007241
			-0.012676 -0.080155  0.002242
			 0.039000 -0.082205 -0.013603
			-0.012676 -0.080155 -0.008602
			 0.028633 -0.070580 -0.031017
			-0.011312 -0.069554 -0.024473
			 0.006000 -0.058953 -0.038273
			 0.006000 -0.133499  0.007785
			 0.019616 -0.117256  0.013565
			-0.002566 -0.134183  0.007355
			 0.038389 -0.101014  0.006224
			-0.010049 -0.134867  0.001480
			 0.038389 -0.101014 -0.012585
			-0.010049 -0.134867 -0.007841
			 0.024304 -0.084087 -0.025692
			-0.007256 -0.101014 -0.019482
			 0.006000 -0.067159 -0.028403
			 0.006000 -0.235059  0.005866
			 0.017092 -0.186161  0.010460
			-0.001935 -0.202403  0.006578
			 0.032262 -0.137261  0.004445
			-0.010049 -0.169746  0.001480
			 0.032262 -0.137261 -0.010806
			-0.010049 -0.169746 -0.007841
			 0.019797 -0.110418 -0.020148
			-0.004641 -0.126660 -0.016267
			 0.006000 -0.083575 -0.020452
			 0.006000 -0.304476  0.006689
			 0.014837 -0.254550  0.007688
			-0.000673 -0.287377  0.005027
			 0.024092 -0.204625  0.002072
			-0.005088 -0.270283  0.000040
			 0.024092 -0.204625 -0.008433
			-0.005088 -0.270283 -0.006401
			 0.015558 -0.169404 -0.014935
			-0.001394 -0.202231 -0.012274
			 0.006000 -0.134183 -0.015243
			 0.006000 -0.368081  0.011350
			 0.014927 -0.320036  0.007798
			-0.003919 -0.353205  0.009019
			 0.019423 -0.271990  0.000716
			-0.010632 -0.338330  0.001648
			 0.019423 -0.271990 -0.007078
			-0.010632 -0.338330 -0.008009
			 0.013754 -0.253356 -0.012718
			-0.002747 -0.286523 -0.013938
			 0.006000 -0.234718 -0.014147
			 0.006000 -0.390306  0.020945
			 0.018624 -0.365173  0.012346
			-0.007256 -0.381415  0.013121
			 0.021174 -0.340039  0.001225
			-0.011216 -0.372526  0.001817
			 0.021174 -0.340039 -0.007586
			-0.011216 -0.372526 -0.008178
			 0.014566 -0.320720 -0.013717
			-0.003198 -0.336963 -0.014492
			 0.006000 -0.301399 -0.014970
			 0.006000 -0.405352  0.023414
			 0.020879 -0.396121  0.015118
			-0.011944 -0.406550  0.018889
			 0.025842 -0.386886  0.002580
			-0.023764 -0.407746  0.005459
			 0.025842 -0.386886 -0.008942
			-0.023764 -0.407746 -0.011821
			 0.017812 -0.378509 -0.017707
			-0.008879 -0.388938 -0.021478
			 0.006000 -0.370131 -0.020452
			 0.006000 -0.415269  0.017380
			 0.020788 -0.406891  0.015007
			-0.009058 -0.414073  0.015340
			 0.031970 -0.398514  0.004361
			-0.020846 -0.412876  0.004614
			 0.031970 -0.398514 -0.010722
			-0.020846 -0.412876 -0.010974
			 0.022051 -0.392871 -0.022920
			-0.010321 -0.400052 -0.023253
			 0.006000 -0.387229 -0.027580
			 0.006000 -0.403302  0.013269
			 0.018263 -0.405010  0.011902
			-0.004190 -0.408089  0.009352
			 0.028176 -0.406719  0.003259
			-0.009466 -0.412876  0.001310
			 0.028176 -0.406719 -0.009620
			-0.009466 -0.412876 -0.007671
			 0.019616 -0.403472 -0.019927
			-0.005542 -0.406550 -0.017376
			 0.006000 -0.400223 -0.023742
			 0.006000 -0.400565  0.008882
			 0.013214 -0.404839  0.005692
			-0.001574 -0.410312  0.006135
			 0.016505 -0.409115 -0.000131
			-0.005672 -0.420056  0.000207
			 0.016505 -0.409115 -0.006230
			-0.005672 -0.420056 -0.006569
			 0.013574 -0.409115 -0.012495
			-0.001935 -0.414585 -0.012939
			 0.006000 -0.409115 -0.016339
			 0.006000 -0.403984 -0.003181
		</DataArray>
	</Points>
			<Polys>
				<DataArray type="Int32" Name="connectivity" format="ascii">
					0 1 2 
					0 2 3 
					0 3 4 
					0 4 5 
					0 5 6 
					0 6 7 
					0 7 8 
					0 8 9 
					0 9 10 
					0 10 1 
					1 11 12 2 
					10 13 11 1 
					2 12 14 3 
					3 14 15 4 
					4 15 16 5 
					5 16 17 6 
					6 17 18 7 
					7 18 19 8 
					8 19 20 9 
					9 20 13 10 
					11 21 22 12 
					13 23 21 11 
					12 22 24 14 
					20 25 23 13 
					14 24 26 15 
					15 26 27 16 
					16 27 28 17 
					17 28 29 18 
					18 29 19 
					29 30 19 
					19 30 25 20 
					21 31 32 22 
					23 33 31 21 
					22 32 34 24 
					25 35 33 23 
					24 34 36 26 
					30 37 35 25 
					26 36 38 27 
					27 38 39 28 
					28 39 40 29 
					29 40 37 30 
					29 40 30 
					31 41 42 32 
					33 43 41 31 
					42 44 32 
					32 44 34 
					35 45 43 33 
					44 46 34 
					34 46 36 
					37 47 45 35 
					46 48 36 
					36 48 38 
					40 49 47 37 
					38 48 50 39 
					39 50 49 40 
					41 51 52 42 
					43 53 51 41 
					52 54 42 
					42 54 44 
					45 55 53 43 
					54 56 44 
					44 56 46 
					47 57 55 45 
					56 58 46 
					46 58 48 
					49 59 57 47 
					48 58 60 50 
					50 60 59 49 
					51 61 62 52 
					53 63 61 51 
					52 62 64 54 
					55 65 63 53 
					54 64 66 56 
					57 67 65 55 
					56 66 68 58 
					59 69 67 57 
					58 68 70 60 
					60 70 69 59 
					61 71 72 62 
					63 73 71 61 
					62 72 74 64 
					65 75 73 63 
					64 74 76 66 
					67 77 75 65 
					66 76 78 68 
					69 79 77 67 
					68 78 80 70 
					70 80 79 69 
					71 81 82 72 
					73 83 81 71 
					72 82 84 74 
					75 85 83 73 
					74 84 86 76 
					77 87 85 75 
					76 86 88 78 
					79 89 87 77 
					78 88 90 80 
					80 90 89 79 
					81 91 92 82 
					83 93 91 81 
					82 92 94 84 
					85 95 93 83 
					84 94 96 86 
					87 97 95 85 
					86 96 98 88 
					89 99 97 87 
					88 98 100 90 
					90 100 99 89 
					91 101 102 92 
					93 103 101 91 
					92 102 104 94 
					95 105 103 93 
					94 104 106 96 
					97 107 105 95 
					96 106 108 98 
					99 109 107 97 
					98 108 110 100 
					100 110 109 99 
					101 111 112 102 
					103 113 111 101 
					102 112 114 104 
					105 115 113 103 
					104 114 116 106 
					107 117 115 105 
					106 116 118 108 
					109 119 117 107 
					108 118 120 110 
					110 120 119 109 
					111 121 122 112 
					113 123 121 111 
					112 122 124 114 
					115 125 123 113 
					114 124 126 116 
					117 127 125 115 
					116 126 128 118 
					119 129 127 117 
					118 128 130 120 
					120 130 129 119 
					121 131 132 122 
					123 133 131 121 
					122 132 134 124 
					125 135 133 123 
					124 134 136 126 
					127 137 135 125 
					126 136 138 128 
					129 139 137 127 
					128 138 140 130 
					130 140 139 129 
					131 141 132 
					133 141 131 
					132 141 134 
					135 141 133 
					134 141 136 
					137 141 135 
					136 141 138 
					139 141 137 
					138 141 140 
					140 141 139 
				</DataArray>
				<DataArray type="Int32" Name="offsets" format="ascii">
					3 6 9 12 15 18 21 24 27 30 34 38 42 46 50 54 58 62 66 70 74 78 82 86 90 94 98 102 105 108 112 116 120 124 128 132 136 140 144 148 152 155 159 163 166 169 173 176 179 183 186 189 193 197 201 205 209 212 215 219 222 225 229 232 235 239 243 247 251 255 259 263 267 271 275 279 283 287 291 295 299 303 307 311 315 319 323 327 331 335 339 343 347 351 355 359 363 367 371 375 379 383 387 391 395 399 403 407 411 415 419 423 427 431 435 439 443 447 451 455 459 463 467 471 475 479 483 487 491 495 499 503 507 511 515 519 523 527 531 535 539 543 547 551 555 559 563 567 570 573 576 579 582 585 588 591 594 597 
				</DataArray>
			</Polys>
		</Piece>
	</PolyData>
</VTKFile>
